/*--------------------------------*- C++ -*----------------------------------*\
| =========                 |                                                 |
| \\      /  F ield         | OpenFOAM: The Open Source CFD Toolbox           |
|  \\    /   O peration     | Version:  2.3.x                                 |
|   \\  /    A nd           | Web:      www.OpenFOAM.org                      |
|    \\/     M anipulation  |                                                 |
\*---------------------------------------------------------------------------*/
FoamFile
{
    version     2.0;
    format      ascii;
    class       volScalarField;
    location    "13";
    object      Ksl;
}
// * * * * * * * * * * * * * * * * * * * * * * * * * * * * * * * * * * * * * //

dimensions      [1 -3 -1 0 0 0 0];

internalField   nonuniform List<scalar> 
197820
(
7821.06
6290.95
2893.82
1976.17
4440.56
7549.68
8690.82
9444.1
9675.89
9509.14
9528.79
9743.31
9944.59
9940.14
9603.78
9926.89
10211.4
9507.02
9509.63
9657.94
9928.09
9936.91
9941.25
9945.88
10125.2
9609.7
10110.9
9219.49
10133.1
9811.51
9829.24
9506.28
7849.92
7895.58
7267.27
5812.31
4295.22
1734.11
1670.17
2102.12
1672.71
2032.01
1831.46
1492.97
1126.75
1617.62
1237.59
1447.96
1994.3
1699.51
8098.04
4551.41
2059.66
1400.55
3296.31
7597.54
9604.81
10040.9
9300.31
9505.52
9711.6
9387.9
10116.3
9964.07
9793.64
9665.32
9115.68
10582.2
10245.7
10322.9
10438.1
10098.6
10641.4
10122.1
9939.82
10290.2
10279.2
10479.4
10835
9758.31
10476.6
10302.7
9756.55
7567.71
4934.68
3473.92
1732.08
1397.21
1085.36
1463.82
2048.88
453.571
425.875
306.748
280.888
37.612
213.096
237.415
260.02
452.719
8412.98
4253.77
2020.04
1192.9
4169.76
8583.96
8774.41
10381.3
9710.31
10209.8
10079.4
9590.84
9919.04
8556.03
10646.1
8574.42
10357.1
10084
9721.97
10256.1
9544.06
9908.88
10311
10676.2
9791.92
9930.52
9222.46
9799.05
9641.27
9214.59
8675.24
9931.6
9579.75
8003.27
5202.9
6040.39
2667.62
1205.79
1298.01
1122.68
1057.59
1154.85
620.68
118.195
0
0
71.8326
0
0
0
8326.78
4519.84
1539.45
2093.44
3285.69
6688.32
9658.64
9310.32
9302.72
9700.45
10071
9738.37
10274.7
9768.07
9970.71
10329
9817.12
10223.8
10609.5
10091.6
10078.6
9546.98
9920.23
9974.13
10488.7
9759.94
10113.8
9707.36
10004
10093.3
10324.1
9808.32
7395.99
8062.25
8399.6
6470.87
4612.82
2572.82
760.549
1240.52
1056.29
1045.08
847.299
273.574
0
0
0
0
0
0
9958.54
6188.73
2446.81
1849.19
3611.33
8669.52
9477.19
9432.39
9837.37
10245.7
9884.2
9012.37
10100.7
9443.92
10275.7
10402.6
9470.04
10041
9909
10275.1
10087.6
9724.57
9576.99
9781.66
9087.55
10012.3
9582.06
9809.98
10173.3
9937.46
10194.5
9787.93
8808.39
7991.33
8162.29
8021.63
5524.17
3052.38
1171.66
912.281
1024.21
1291.36
939.474
1028.56
185.104
48.3845
0
0
79.3306
76.5805
9368.42
7499.01
2016.59
774.466
2976.38
6661.6
10195.1
9531.41
9691.19
9902.67
9551.46
9553.33
9596.99
9971.13
9617.06
9813.39
9848.48
10220.2
9896.69
10084.4
9903.42
9732.27
10660
10680
9778.32
9738.39
9553.91
10162.4
10102.5
9150.76
9616.43
8992.49
9280.14
9261.54
8470.47
7892.53
7289.72
1463.63
803.972
1065.86
1351.16
1516.63
718.034
893.101
524.095
89.066
0
126.08
0
71.6083
7904.28
4539.77
2343.44
779.786
2771.28
6514.74
9656.81
9547.79
10060.3
10605.3
9739.68
9922.03
9973.76
9967.22
9085.65
9928.11
9659.43
10038.9
10601.5
9887.6
9747.69
10463.2
9219
10139.6
10520
9756.66
9915.85
10293.1
9051.62
10427
9589.11
9479.17
9504.21
9311.57
8656.61
7593.13
5570.94
1646.06
779.286
332.045
1034.92
1052.64
1402.64
941.933
327.871
77.2894
0
0
0
138.902
8792.57
5706.17
2384.78
980.064
3118
4860.98
9911.97
9099.45
9009.65
9744.48
9951.73
10126.9
9808.53
9574.44
10229.7
9709.68
9816.85
9179.85
9702.12
8704.05
10455.6
9624.37
10660.3
9780.29
9776.87
9997.66
9565.19
10111.1
9840.55
9912.75
9074.93
9779.82
9027.28
8558.39
9211.81
8139.07
4897.47
1087.68
504.111
270.575
617.511
906.002
1183.83
887.533
266.073
89.7179
0
66.3049
123.753
66.241
9616.5
5643.2
2437.73
1223.22
2791.68
4857.98
8977.8
9058.19
10046.5
9543.53
9941.22
9978.29
9468.55
10354.3
9701.65
10843.6
7579.68
10370.5
10154
9925.52
10460.5
9766.54
9948.34
9604.88
9966.52
9537.47
9820.19
9742.94
9891
9830.07
10194.9
9498.89
7836.02
9725.84
8114.05
8146.31
3822.53
1360.57
548.601
839.933
694.584
1048.29
1177.52
993.408
166.341
0
0
60.9249
0
0
8918.49
6045.71
3956.76
1516.13
3281.94
5719.31
9569.55
9423.58
9944.15
8976.81
9933.3
10013.1
9846.13
10362.8
9813.13
10185.9
10530.3
9495.01
9721.11
10454.4
9699.08
9829.13
9774.86
9972.02
9121.06
10032
9940.2
9618.24
9460.49
9401.15
9423.01
9055.17
9586.14
7749.93
8867.75
8018.29
3743.39
1206.42
884.171
713.478
703.823
531.655
997.035
989.56
127.371
0
0
0
0
0
8126.44
6060.84
4374.97
2358.65
7329.11
5758.08
8850.62
9385.23
9318.58
9624.6
9605.63
9876.93
10637.7
9676.99
8582.14
10178.8
9522.4
10602.8
9713.54
9716.03
9921.29
9947.66
10146.5
9982.9
9979.21
9781.6
10364.5
9925.56
9884.63
9567.02
9548.38
9641.14
9708.25
9990.54
9214.51
7583.94
3824.92
1669.46
1001.97
959.783
558.446
650.292
357.568
620.057
77.2297
0
0
0
73.0833
0
8135.25
4611.26
6535.16
5426.96
7956.53
8656.96
7395.42
8137.23
9240.09
10217.4
10500.1
9766.17
9208.54
9745.62
10225.2
9125.81
9856.05
10241.5
9711.32
10419.7
9921.27
10649.8
9789.24
9963.92
10125.1
10687.1
10101.1
9751.82
10243
9490.83
9725.86
8488.5
9800.92
9272
9497.52
7839.39
5504.57
2080.93
1419.42
589.784
207.224
370.092
491.904
212.109
36.1587
58.7533
0
0
0
78.3024
8348.36
7023.92
2039.12
2288.84
5759.91
6660.86
9455.77
9606.87
9833.06
10370.7
9537.52
10447.2
9757.53
9066.67
9962.62
9629.78
10200.9
10575.4
10383.6
9706.11
10621.5
10112.1
10456.5
9927.14
9967.35
10497
9579.17
9565.25
9592.21
9979.5
9804.4
9522.86
9057.39
9718.09
6442.54
4560.27
3178.31
3917.65
2253.31
1621.41
1820.25
2003.42
1110.91
1365.67
1000.58
1576.86
1333.34
1227.28
2448.57
1521.55
7927.85
9052.26
2922.82
1961.2
5741.17
8071.38
9313.52
10761.5
10156.3
9828.73
9703.31
10602.5
9762.86
10638
9725.23
9776.93
10003.3
10400.5
10403.5
10247.3
10798.1
9920.33
9734.16
10116.7
10838.9
10233
9918.65
10640.2
10662.4
10836.8
10149.4
9639.04
10078.7
7726.14
4262.22
2980.27
2321.92
2224.61
1938.52
1889.75
1732.89
973.924
213.565
65.6191
62.8768
49.9485
40.3967
123.834
202.953
113.446
8467.74
6555.25
2322.71
2696.26
4253.59
8753.53
10220.1
8321.46
10121.8
9516.58
10584.5
9919.87
10099.8
10462.9
10196.1
10149.9
10365.8
10560.9
9515.71
10590.1
10275.5
10968.6
10450.8
10294.1
10999.9
9864.02
10409.4
10486.5
10682.9
9518.49
10418.9
9588.72
9392.94
8676.15
8190.44
3848.2
3707.22
1970
1874.68
1020.6
385.904
939.715
663.305
396.547
0
0
0
0
75.3892
76.1667
7802.39
7885.5
1755.08
2686.13
5386.8
8704.16
10031.7
10230.2
10303.2
9842.43
10224.9
10257.8
9749.86
9583.93
10159.4
10281.1
9828.73
10449.3
10242.9
10254.3
10436.5
10263.5
10108
10468.9
9758.17
10289.8
10241.8
10374.7
10127.9
9553.63
10199.3
10522.6
9825.89
9438.47
8599.09
6819.58
5739.43
1636.08
873.34
124.809
235.322
379.692
309.241
633.116
41.0661
119.023
0
0
0
75.2851
9105.29
8650.42
2607.57
1945.2
5311.14
8057.99
10036.2
9560.02
9986.87
9856.88
9875.74
9890.52
9940.06
11002.5
9616.59
9803.52
10698
10219.7
11288.7
10097.4
9886.16
9193.7
10745.1
10018.3
10819
10476.8
10451.5
10116.4
10701.8
10588.8
8064.79
9902.35
10132.4
8881.33
9095.72
8205.85
6634.5
787.255
188.903
183.086
116.076
299.239
229.271
326.694
242.609
76.2399
0
0
0
78.1862
10133
7135.01
2330.53
1746.45
4615.05
8027.8
9737.73
9941.69
10002.3
10388.4
9879.98
9727.7
10284.3
9960.69
10490.6
10690.7
9947.56
10263.9
10236
10432
11009.8
10436.4
10809.1
10655.7
10472.3
9931.25
10444.1
10266.2
9579.83
10929.5
10261.3
9349.34
10099.1
9484.45
9429.1
8188.67
6394.02
490.28
103.922
76.2836
194.746
160.273
138.422
195.121
320.934
79.4226
0
0
0
0
9141.75
8356
2196.64
1212.7
3464.16
7552.94
10141.2
9749.68
10016.4
10054
10238.9
9920.79
10239.9
10378.8
10476.5
9978.85
10881.2
9673.49
10342.9
10842.8
10443
10450.7
9854.82
10543.4
10632.7
10527
9158.79
9928.93
9799.23
10167.9
9415.55
9658.49
10173.6
10095.6
9418.92
8224.42
4196.7
421.126
75.7808
79.4547
0
131.648
318.022
336.974
100.638
82.0474
42.3366
0
0
0
10269.2
6748.45
2527.99
1653.02
3166.08
6951.18
9727.96
9542.47
10197.4
10741
9550.31
10459.1
10858.6
10150.1
9592.4
9811.8
10553.2
10558.9
9699.82
10235.9
10454.8
10057.8
10355.8
10123.2
10373.1
9886.25
10213.2
10332.9
9892.67
9665.67
9601.38
9555.32
10262
9784.93
9385.46
8718.38
3725.35
264.42
39.3156
112.331
40.6377
0
233.454
154.103
105.389
42.9461
74.6244
0
0
0
9972.14
8985.54
3468.39
1487.79
4590.06
6153.68
9383.81
10047.7
10449.8
9570.12
10429.5
10670.6
10042.5
10495.5
8049.73
10145.1
10046.7
10569.3
10787.8
9721.23
9712.98
10480.6
10460
10481.4
10614
10838.5
10254.9
10079
11276.3
9643.65
10112.8
9808.89
9350.99
10318.5
9794.21
8155.16
1480.96
49.0488
81.6088
41.9174
0
39.6727
98.2813
231.844
177.511
58.2523
65.1003
0
0
0
8551.55
7192.43
4177.14
1718.65
3989.94
8296.48
9219.09
9443.52
10411.9
10185.3
10260.2
9977.54
10714.3
9456.92
10152.6
10009.7
10557.3
9862.85
9889.36
10610.5
10032.9
10516.5
9762.48
10499.6
10516.7
10122.4
9929.46
10455.1
10046.6
9380.75
10539.9
9559.82
9458.27
9386.69
9403.2
7979.04
1053.39
157.327
128.6
230.901
164.648
44.5487
150.726
215.76
48.3889
268.597
0
0
73.7888
0
8208.32
7133.83
4682.04
2979.26
6084.25
6774.64
9159.16
9878.5
9439.64
8944.09
10479.4
10209
9857.4
10718.5
10521.7
10185.4
10552.7
10220.6
10591.6
10309.7
10252.4
10287.9
10241.7
10402.7
10862.4
8431.73
10883.6
10280.6
9861.83
10142.4
10133.9
10370.9
9853.19
9873.69
9351.59
7962.25
1195.13
249.736
385.913
33.9192
0
184.176
105.879
105.469
46.0692
80.4602
0
0
137.891
0
8752.07
5233.41
5808.47
5371.12
8834.07
8338.54
8408.91
8618.22
9858.63
9905.13
9882.91
10790
10246.7
10412
10735.4
10013
9843.84
10049.6
10407.6
10776.3
10794.7
10103.6
9931.97
10509.8
10810.9
10377.8
10288.1
9671.16
10712.9
9945.75
9843.79
9899.66
9311.37
9660.63
9691.63
4596.4
3423.15
549.187
140.687
0
0
114.521
267.095
102.298
68.4837
65.2324
55.2151
55.5105
59.3232
0
8969.94
8100.62
1934.34
2014.83
4276.42
8311.65
9326.57
9733.7
9294.23
10208.7
10239
9725.84
9754.12
10481.3
10336.7
10168.8
9506.63
9841.62
8605.6
10245
10649.1
9925.82
10278.6
10122.9
10482.5
9958.26
10306.7
9754.77
9228.1
9783.95
9640.15
10404.7
10495
8114.67
5878.67
5753.8
3170.9
3236.69
2283.26
2834.89
1564.97
1585.25
1673.12
1372.93
1188.09
1502.64
854.232
1757.46
1323.7
1482.65
10032.3
7615.82
2670.12
2607.14
7356.32
7531.39
9393.6
9713.16
10309.3
9677.02
9869.36
9685.37
10688.6
9424.89
10134.8
9985.26
10536.2
10562.1
10393
10063.9
9920.05
10445.2
9751.14
10639.4
9576.14
10303.9
10828.4
9758.75
9765.37
10160.6
10250.7
10293.1
8941.1
8727.24
2701.39
1505.78
1924.96
1583.49
812.489
844.993
859.574
303.971
70.3
0
134.606
46.7451
0
185.168
237.133
274.396
9125.69
7559.62
2677.56
2954.01
5812.36
8843.64
9773.25
10006
9947.93
9593.66
10275.8
10605.2
10454.9
10118.5
10317.9
10169.2
9995.81
9671.24
10911.8
10082.3
11251.2
10335.9
10269.4
10643.2
9928.7
9931.36
10121.1
10428.2
9966.8
10152.3
9125.87
10750.5
10096.8
9341.98
4215.41
3148.76
1392.17
961.69
297.213
0
102.537
485.494
267.608
615.103
76.2617
0
0
0
0
81.9583
8627.73
7059.24
2368.57
2870.57
6213.21
8523.98
9603.67
10349
10128.8
10341.4
9508.51
9892.05
10450.1
10819.9
10668.5
10688.9
10175.4
10203.3
10056.8
9892.12
9921.36
10459.4
9934.08
10100.2
9738.41
10238.6
11002.8
10191.2
10297.9
9649.21
10784.5
9878.99
9398.76
9251.25
9252.65
4834.7
3367.71
519.798
110.368
65.404
65.6029
59.1174
142.286
182.917
115.475
0
71.0624
128.37
0
137.358
8294.55
5284.49
2278.27
2152.66
4534.2
8382.55
9677.7
10386.1
10128.6
9644.78
10040.1
10600.9
9753.33
10489.5
10675.1
9457.21
10351.9
9686.79
10228.9
9845.21
11705.9
10279.9
9909.29
9924.47
10460.5
10551.5
10282.4
10105.2
10507.1
10329.6
9132.54
10635.6
9458.28
9155.24
10161.1
7546.91
4732.51
234.613
0
0
58.4982
0
0
127.859
113.176
105.575
0
0
0
85.4444
8763.58
8278.74
2395.12
2372.3
5365.95
8654.55
9309.94
10216
9973.78
10523.5
10049.6
10417.5
9939.84
10648.1
9442.01
10337.7
10708.6
10214
11273.2
9653.25
10247.2
10519.4
10636.3
9691.91
10357.2
10218.5
9814.07
10454.7
10423.6
10783.2
9767.79
9743.99
9717.91
9688.01
8967.54
8121.24
4648.71
34.7771
0
0
0
53.0112
57.5285
108.675
306.857
49.2687
0
0
0
82.3406
8451.41
5962.93
3080.45
1963.2
5303.5
7503.16
9413.47
9980.29
9985.87
10305.7
10299
10368.5
9761.3
10720.1
10504.9
9986.46
10188.1
10386.9
10065.5
10246.2
9740.29
10805.8
9574.94
10282.9
9774.77
9515.6
10342.9
10449.2
10258.9
10413.8
10282.3
9733.21
9204.25
10273.6
9259.64
8653.04
3265.92
73.3968
38.4421
0
0
50.5152
53.5728
57.6274
46.7104
97.4805
0
0
0
0
10160.3
8114.37
2534.09
1369.65
4389.78
7488.6
9490.07
10217
10041.4
9855.45
10407.8
9732.72
10295.4
10674.8
10853
10519.4
10007.9
10014.5
9880.03
10604.7
10104.1
10627.2
9926.19
10630.1
9950.11
10425.7
10466.3
9787.37
10244.5
10052.7
11245
9341.98
10437.6
9222.45
9380.79
7497.46
2295.52
127.442
39.0013
80.367
42.482
0
96.7407
50.1443
168.917
113.467
0
0
0
0
9877.18
7157.67
3138.63
1432.57
4991.03
5888.29
9580.76
9612.35
9797.18
10362.5
10069.5
10115.7
10319.6
9991.71
10499.7
10212
10356.3
8591.31
10240.3
10824.8
10279.3
10035.1
10324.5
9770.33
10141.2
10501.8
10407.3
10326.2
10766.4
9843.66
9544.74
10079.6
10037.9
9315.29
9939.54
8287.57
1411.02
242.86
0
123.519
122.549
0
109.337
63.0408
0
67.1042
0
85.0261
0
0
8293.38
5957.37
3500.43
2006.48
4816.42
6663.59
9353.03
9130.96
9557.47
10193
10255.7
9053.31
10334.6
10538
9812.03
10166.2
10375
10916.5
11287
10066.3
9987.19
10524.2
10830.3
10129.4
10494.4
10327.6
10115.7
9709.99
9888.44
10015
9599.95
9801.22
10554.7
9649.86
9835.6
8401.93
888.261
191.223
122.215
73.8039
91.3071
113.89
0
140.685
0
196.094
0
0
159.815
79.7958
8131.19
4993.4
4929.83
2469.29
7320.37
8116.25
8631.78
10064.2
10468.7
9739.95
10501.5
10508.1
10341
9467.17
10358.8
10566.9
10377
9872.05
10589.6
9016.4
10054.1
10296.2
10665.5
10493.4
10322.4
10319.2
9633.99
9988.16
10282.7
9843.23
9976.42
9958.47
10595.6
8896
8667.65
6832.82
1121.11
181.689
127.436
0
0
0
80.7825
74.528
0
0
0
134.512
0
78.5199
7376.43
4568.2
5664.86
3839.98
8040.91
6805.89
8712.2
9058.61
10037.4
10375.3
9939.9
9905.21
9128.24
10568.7
9506.25
11064.3
10024.4
10901.5
10084.9
10064.2
9543.69
10291.1
9961.8
9075.46
10030
10706.2
10152.8
9889.94
9162.21
10397.9
10167.7
9996.09
10240
9309.32
9821.36
6662.28
2195.15
48.0499
0
0
0
128.205
59.9726
198.258
54.4439
72.618
219.931
0
56.5993
0
9324.33
7158.42
2257.71
3035.57
5044.74
5452.08
8899.79
9847.63
10382.4
9701.34
9703.7
9378.56
10119.9
10328.5
10148.7
9808.38
10006.2
9682.31
10091.3
10417.4
8640.49
10607.4
9957.31
10115.3
10660.8
10816.6
9919.11
10692.6
10510.5
10340.2
10192.4
10187.1
9553.84
9163.97
6451.71
5313.91
3628.21
2561.01
3148.57
2140.14
2290.97
2056.78
1768.47
2118.87
1583.46
1419.48
1306.6
1499.79
2114.94
2467.81
9470.35
6777.13
3702.77
3016.75
5072.9
8211.94
9750.81
9538.54
9811.94
10199.2
9711.2
10249.2
9590.81
10820.4
9790.98
10152.6
10877.7
10553.4
10749.9
10597.3
10418.9
10083.3
10445.5
9942.08
10494.1
10289.9
9214.68
10286.7
9799.92
10727.4
10584.3
10200.4
10786.3
6043.9
3222.06
1197.77
1705.14
1002.86
1586.04
933.946
1144.42
411.467
128.387
67.2854
111.885
0
93.1039
391.174
260.851
256.603
8367.75
8426.99
3488.24
3399.88
5492.68
8610
9408.33
9490.29
10126.8
10019.9
10046.2
9741.44
10276.9
9594.44
10665.5
10532.8
9826.2
9662.23
10351.1
10845.2
10088.5
10435
9908.61
10471.9
10998.7
10233.1
10101.7
9995.19
10693.9
9990.23
10183.7
10626.2
9155
9195.17
3518.1
1092.63
1289.08
461.982
166.79
75.0068
52.8141
225.366
351.631
140.819
114.824
75.5218
0
83.2836
0
0
9086.03
7111.54
2571.79
4069.48
4859.48
8933.52
9093.16
9813.16
9945.65
10852.1
10556.5
10756.4
10093.3
10116.6
10503.9
10521.1
10184.5
10551.8
10056.8
10235.9
10089.9
10973.1
9941.4
10456.7
9720.38
9769.36
10125.3
9594.37
10693.2
10340.7
9980.98
9966.19
9856
9559.85
8103.6
7642.78
1685.35
388.797
0
0
0
0
0
157.465
308.677
0
69.5479
69.1856
0
72.6312
8779.15
8040.57
2868.82
2837.13
6342.6
7300.04
9477.79
9511.19
10289.9
9467.21
10036.9
10770.1
10108.9
9944.72
9979.76
10342
10013
10557.2
10423.2
10536.4
9788.03
10610
10289.3
10622.6
9938.92
11150.6
9759.95
10288.9
9961.5
9902.04
10559.6
9966.67
9645.79
9983.22
8968.67
8235.65
2965.49
110.437
0
66.9153
0
0
71.1727
63.7591
0
0
0
0
0
0
8616.35
6141.18
3957.5
2962.29
4766.93
7972.45
9955.3
9701.29
10121.7
9821.79
9446.58
10171.7
9937.91
9777.39
10328
10692.8
10188.9
10379.3
10249.2
10548.3
9974.28
9835.51
9580.8
11504.7
9062.45
10162.3
10125.1
9524.97
9716.78
9897.65
10074.6
10240.5
9307.75
10288
10004.6
8362.07
2954.63
0
0
48.644
0
0
0
178.797
274.471
0
0
0
0
0
8069.04
5604.42
3098.28
2334.56
5379.15
6239.46
10100.6
9933.74
9440.64
9295.43
10230.7
10787.1
9757.76
9783.44
10157.9
9817.51
10539.2
10567.1
10411.9
10763.9
10250.9
10640
10618
9171.86
10655
10497.7
10106
9794.91
10282.9
10451.2
10202.6
10062.7
9140.78
9261.35
9541.99
8432.72
2698.27
76.1931
37.9403
0
99.1701
43.5469
46.7251
358.753
143.06
188.316
102.738
0
0
0
8894.49
8046.82
2570.06
1600.56
5359.98
8006.33
9260.51
10056.2
9948.72
10516
10394.6
9727.98
10112.3
10151.3
10161.1
10161.9
10201.7
10569.3
10409.9
10083.9
10270.6
10093.6
10085.4
10291
10472.9
9709.1
10541.9
9740.66
9658.5
10483.5
10016.1
9544.94
9775.7
9868.3
9840.48
7925.25
1618.45
78.7944
105.212
75.0245
0
44.5218
0
0
55.2313
127.601
0
83.2913
0
0
7935.51
4699.01
2647.02
1373.81
5080.12
6655.72
9587.21
10607.8
9418.9
9464.29
10062.3
9866.37
9850.05
10144.3
9456.92
10005
10208.4
10568.6
10171.5
10152.1
11360.4
9897.98
8156.26
11343.3
9827.59
10374.7
10143.2
10280.3
9943.34
9550.74
10120.5
9633.57
9482.9
9840.95
9258.39
8484.33
1240.12
117.494
73.044
128.458
135.3
0
66.9516
0
0
0
170.744
0
0
91.7582
8246.86
5198.03
3438.8
2061.85
5822.2
6248.45
9278.76
9949.48
9558.4
10345.8
10053.4
9372.75
10322.1
10701.2
9753.55
10062.9
10555
10407.7
9765.7
10751.1
8126.86
11482.6
10342.7
10304.1
9888.17
10747.1
10659
9892.33
9893.1
10519.9
10300.7
10215.5
9869.16
9877.85
9911.95
7715.62
1465.47
147.781
150.248
0
0
0
0
0
0
0
84.5226
0
0
0
8524.12
4634.73
3573.43
2989.11
6190.9
6306.19
9700.79
9347.53
9642.21
9958.53
10071.6
10648.1
9976.33
9987.55
10536.8
10485.5
10264.4
9795.24
10839.2
10537.8
10129.4
10450
9956.81
10486.5
10153.2
10159
10299.3
9167.75
10066.7
9873.61
10378.3
9961.07
9328.1
10385.7
9121.81
7068.14
896.127
82.1095
0
0
0
0
0
216.534
63.9581
77.1496
0
72.0439
0
0
8679.56
4664.86
5646.21
3607.12
7710.88
8366.32
8470.5
9613.27
9894.7
9798
9914.87
10146.4
11053.6
10556.8
10890.1
9484.77
10006.8
9862.43
10107.5
10917.2
10200.6
10631.3
10186.4
10324.2
9972.46
10332.9
9953.71
9905.77
10258.5
10754.8
9895.36
10322.8
9778.58
9790.71
9191.84
7979.57
558.476
0
0
0
0
0
0
83.0905
63.4431
260.75
153.492
0
0
90.2862
9893.62
6761.18
2404.47
1941.77
3670.09
6067.4
8597.97
9854.24
9355.21
9704.66
9906.33
10286.9
10312.7
9612.46
9424.73
10138.1
10374.3
10229.7
9528.49
10078.3
10074.1
9718.1
10292
10668.9
9762.18
9558.5
9746.06
9542.86
10206.8
9817.39
8723.75
9315.55
9806.99
8804.73
7550.4
4509.43
3024.46
2701.2
3326.37
3189.91
1688.8
1817.16
1838.85
1958.19
1453.68
2107
1646.2
1805.94
2175.09
2636.61
8626.12
8626.19
2544
3998.16
4410.62
8257.57
9602.37
9924.58
10163.9
9858.28
10591.1
10104.9
9751.27
9787.42
11178.8
9458.49
10007.6
9685.98
9811.35
10676.9
10446.1
9722.81
9731.88
10303.8
10829.8
10096.1
10442.5
10647.1
10688
10718.7
10215.6
10537.3
10613.8
9600.44
2679.41
1711.94
1754.89
1788.11
1633.71
2000.45
780.331
708.438
206.284
116.164
50.4927
181.054
121.568
279.355
264.211
307.723
7944.19
8137.61
3463.05
3099.74
5321.75
6963.61
9720.81
9712.53
9973.32
10356.8
9704.75
10783
10153.3
9762.13
8546.35
10697.7
10058.2
10025.3
9517.79
10429.6
10270
10493.9
10276.9
10818.1
10113.6
10451
10633.2
9781.58
10328.9
9846
10094.3
10612.6
10470.7
9370.04
2891.15
1506.6
1087.96
1048.35
151.922
0
93.982
279.06
180.806
314.498
177.448
0
0
83.2037
82.8116
0
8499.39
6699.68
2343.31
2637.23
6158.43
9248.19
9045.98
9834.01
10246.1
9897.64
9859.96
9373.5
9763.24
10657.6
10669
10345.7
10364
10210.6
10748.1
10069.2
10264.9
10261.6
9557.4
10985.6
10426.7
10618.3
9567.36
10670.6
10004.5
10072.7
9670.81
9777.96
10675.9
8883.84
9251.6
3872.12
1836.74
303.025
0
130.02
60.2446
0
294.07
46.0471
126.367
0
0
0
0
0
7856.08
7137.67
3038.05
2926.71
5603.28
7471.12
9931.45
9520
9780.56
9997.47
10027.7
10076.6
10398.1
10374.9
10318.2
9987.09
10717.3
10911.6
10119.9
10422.7
10159.6
10265
10097.5
10132.4
10813.9
9186.99
10287.7
10139.5
10875.1
9599.03
10527.6
8614.73
9747.63
9490.95
9026.64
7735.99
2451.79
99.6046
108.975
0
60.4526
61.3485
60.4611
0
0
0
0
0
0
80.5879
8780.72
8409.04
3250.72
2436.76
5587.24
8452.57
8917.15
9854.04
9954.71
9750.02
9913.17
10589.3
10466.3
10663.5
9985.5
9816.2
9839.32
9855.23
10058.4
10619.7
10792.3
9900.8
10099.4
10469.4
9576.03
10285
10472.4
10296.1
10328.5
10839.1
10066.2
11036.3
10139.1
9704.05
9183.99
7781.15
4739.4
80.2723
80.2656
88.4394
187.089
56.0711
59.7532
57.3092
197.536
103.613
46.0138
0
0
0
8834.68
7095.04
2894.9
2799.94
6707.06
7030.07
9721.21
9708
10104
10167.2
10200
9896.21
10043.1
10389.5
11027.8
9818.57
9947.98
10284.8
10227.8
9724.44
10617.5
9921.81
10274.1
10803
10454.9
10637.8
10296.7
10428.6
10435.1
9587.02
9653.5
9944.99
9283.76
9635.84
9878.48
8471.31
2004.4
0
30.285
113.632
118.736
43.1669
0
0
125.689
0
0
0
0
0
8711.37
7543.21
2891.05
1637.57
5071.28
7546.56
9720.32
10366.7
10110.4
10493.8
9621.16
10288.2
9947.32
11346.7
9818.7
10685.6
9672.29
10213.9
9888.32
10248.9
9735.72
10625
10301.2
10280.3
9723.63
9935.45
10618.3
10826.5
10625.7
10142.8
10196.9
10303.5
10173.3
9834.23
10131
6702.87
3283.3
34.2536
68.6643
0
139.172
47.6901
58.4565
0
62.2015
0
0
0
0
0
8656.58
5210.35
2806.52
1798.73
4804.39
8028.79
9484.98
9842.35
9742.73
9787.84
9860.95
11122.5
10124.2
9953
9749.81
10767.3
10034.6
10150
10288.3
10376.2
10514.7
9915.48
10273.9
9754.47
10177
10133.6
10774.1
9958.45
9546.25
10250.7
10573.5
10377.7
9846.23
9704.31
10127.6
7926.13
1423.92
113.497
84.8174
49.7849
53.5883
0
0
0
0
0
94.3298
0
0
0
8107.37
4660.69
3407.12
2017.81
4840.06
6588.82
9715.33
9580.25
9706.57
10303.4
10036.2
9910.65
10117.8
10152.5
10984.8
10070.9
10025.8
10569.8
10061.1
11113.8
10409.7
9735.83
11176.2
9953.49
10299.7
10494.5
10307.8
9870.49
10507.5
9892.49
9403.73
10474.5
10414.1
9804.72
9432.03
8228.91
1423.08
0
0
0
0
0
0
0
71.7875
0
0
0
0
90.0834
9142.84
4931.98
5004.33
2119.73
6349.61
8809.14
9330.39
9525.47
10492.5
9628.16
9693.28
9770.43
10312.2
9802.41
10191.2
10014.8
10373.1
10572.4
10047.4
9892.6
10617
10279.4
10124
10673.8
10319.5
9594.88
9770.07
10233.3
10937.2
10079.4
10335.5
9608.59
10537.4
9585.43
9489.18
8074.59
230.385
0
0
0
64.449
0
0
86.7927
84.3887
0
70.4788
0
0
0
7394.78
6622.22
5595.2
3741.8
7996.85
6806.96
8708.98
9234.61
9601.61
10647.8
10084.9
10466
10047.1
10169
10369.3
10667.2
10270.3
10198.3
9157.26
10589.2
10223.7
11047.2
10477.9
10663
10665.6
9788.23
10130.5
9519.13
10177.6
9540.69
10226.5
10168.2
10354.5
9463.85
9675.23
7808.91
168.471
0
0
0
0
0
0
357.936
75.1062
164.161
0
114.001
64.9472
0
8375.63
7152.7
2825.99
1783.43
3758.52
5291.01
9258.23
9579.26
9547.18
10416.2
9916.31
9925.28
10144.6
10221.6
9982.69
8035.63
9104.39
10111.5
10626.7
10080.4
10256.8
9723.83
9918.2
10816
10278.9
10448.2
10634.3
9775.33
9999.86
9608.23
8714.06
9792.3
9245.06
9383.45
8164.89
4970.65
3393.63
2803.62
2901.25
2299.85
3632.79
2667.66
2323.86
1166.33
1601.99
2492.53
2107.58
1788.65
2078.18
1801.28
7937.69
8558.18
2016.91
2596.42
4590.95
4697.83
9751.9
10079.3
10028.6
9327.1
10437.3
10799.8
9586.06
9969.49
10512.8
10319.4
10009.1
10401
9695.66
9956.22
10967.9
10449.9
10449
10294.4
9734.77
9737.72
10109.1
9598.2
10436.2
10596.4
10741.6
10146.3
10421.2
9130.55
4753.57
960.101
869.759
2696.23
1858.3
1118.48
534.29
311.131
201.907
140.198
217.536
237.036
140.07
138.667
513.437
690.398
8915.18
9062.62
1455.26
2847.13
4998.23
7806.44
9252.32
10089.4
9640.43
9781.41
10630.6
9552.98
10645.3
11017.4
10309.3
10159.1
10300.8
10279.1
10917.1
9893.1
10598.2
10209.4
11152.5
10290.4
10440.1
9506.47
10909.4
10125.4
8671.45
10215.8
10536.3
10062.7
8460.41
8683.97
1524.79
892.886
1362.28
2146.22
755.48
854.263
694.101
476.067
68.0601
114.215
0
74.0661
74.4704
0
0
71.86
8932.16
5611.71
1508.78
1984.97
3957.78
8242.23
9480.83
9895.53
9927.61
9542.88
9680.47
10085.8
10644.6
9966.33
9621.06
10186.5
10723.1
9511.06
10570
9538.77
10610.6
10452.3
10102.4
10284.2
9935.53
10459.4
9752.84
9778.77
10459.1
9803.73
10737.9
9908.77
7612.12
9550.38
5319.25
3125.78
1955
622.243
198.24
225.111
77.0731
265.194
217.128
198.354
0
0
77.3143
0
0
74.0981
9229.54
7609.24
1739.5
1693.69
5007.79
6592.03
9544.95
9762.65
10084.5
10684.3
10538.2
9719.02
9929.42
9794.98
10688.6
10177.4
9657.8
10392.5
9822.47
10600.3
9838.43
10438.3
10461.8
10109.5
10388.4
9987.23
11328.8
10059.6
10521.3
10628.7
10198.7
10136.6
9810.57
9991.51
8562.13
7329.91
2819.55
242.834
43.7279
314.265
87.8069
216.387
123.457
0
70.4766
51.51
47.8053
0
132.293
0
9150.2
6735.24
3822.16
2075.58
3933.7
6569.67
9813.29
10451.6
10021.8
9459.89
9848.67
10595.9
9750.81
10495.6
10689.5
10354.3
10699.1
9686.75
10398.7
9912.07
10442.1
10089.9
9859.34
10356.5
10481.7
10825.7
9912.88
9724.42
10295.1
10404.6
9079.03
9392.53
9333.06
9876.45
8928.76
5331.2
3745.82
186.333
115.04
35.4613
165.21
80.2888
86.563
0
213.169
52.5943
55.5326
0
0
0
9009.07
7059.96
2845.56
2274.51
4741.84
7982.92
9943.87
8821.33
10101.9
10174
9793.41
10126.9
10104.9
9972.96
10516.7
10342
10198.9
10844.2
9931.14
10940.4
10275.1
11199.6
9929.78
10287.5
10115.6
9936.95
10285.1
10313.6
9966.84
9783.83
10702
10354.9
9522.46
9870.08
8189.22
7758.43
4258.64
88.7421
29.228
36.2659
74.621
45.3798
57.2336
0
59.9299
116.339
0
0
0
87.5047
8777.5
6646.38
2714.81
1765.4
4815.94
8034.74
9723.06
9494.33
10090.8
9814.63
9666.89
9535.1
10469.7
9982.04
10322.5
9411.71
10960.4
10389.1
10399.1
10778
10437.9
9982.1
10294.6
10466.5
9511.16
10815.5
9525.51
10376.7
9957.26
9889.67
10164.7
9987.4
10300.8
8976.19
9421.79
7636.76
1826.97
163.611
0
0
52.1964
0
57.2528
0
0
0
0
0
0
0
9286.76
6196.13
2946.46
1926.15
6902.54
5603
9677.96
10126.6
10422.2
9611.09
9831.77
10267.9
10471.1
9425.11
9788.45
10388.8
10748.8
9684.15
9693.62
10069.5
9742.12
10869.8
9518.79
10715.5
11113.9
9058.44
10963.5
10491.6
10651.5
10297.3
10026.9
10201.2
9722.59
10227.8
9896.31
7659.3
839.903
0
52.1176
67.7904
65.0223
0
71.1299
0
0
0
0
0
0
0
9090.51
5800.93
3824.54
2082.82
7163.61
7561.99
8957.18
10259.9
9701.79
9608.95
9574.26
10903.5
9950.32
9960.9
9641.97
10198.3
10570.2
10062.5
10226.2
9172.76
10067.2
10465.6
10130.8
11007.5
10139.8
10060.4
10204.5
9974.17
9775.68
10122.6
10101.5
10465.2
9609.72
9277.97
8957.76
8001.89
224.365
0
0
0
0
0
0
0
0
0
180.142
0
0
0
8002.13
3887.49
3335.6
2313.49
6405.83
8522.26
9517.28
8481.47
9877.16
9795.44
10569.1
10440.6
9943.64
10312.2
10867.5
10307.5
10089.5
10033.5
10413.5
10948.6
10425.1
9924.94
9941.17
9768.29
10509.2
10727.8
10497.1
10645.6
10417.4
10406.7
10376.8
10183.7
9648.57
10067.7
9257.76
5985.91
99.7035
0
0
0
0
0
0
0
93.5711
0
0
78.1341
0
87.9332
8340.94
5897.31
4666.01
4542.56
7913.52
8188.24
8980.99
9533.92
9300.54
10157.5
9839.82
10244.8
10258.4
9807.9
9821.84
10381.7
10383.9
9681.32
10224.2
10073.7
9906.03
10470
10665
10213.8
10136.6
10160
11075.1
10075.1
8642.49
10559.3
8698.49
9785.63
11201.6
9508.69
10366.1
3304.33
45.847
0
0
0
60.7929
0
0
82.1484
281.865
113.938
62.6824
63.3941
0
0
9548.41
7526.06
1908.18
2116.14
1647.12
4122.09
9336.75
9870.32
9737.72
9378.56
10093.4
9053.16
9774.07
9651.52
10007.5
10330.5
9844.08
10601
10072.1
9513.69
10084.1
11162.7
9921.67
9719.1
9723.38
10280.2
9934
9962.99
10306.8
9589.11
10278.8
10103.5
9118.61
9156.88
8630.59
7159.64
5297.86
2975.7
2217.89
2605.88
2532.39
1490.96
1477.09
3033.71
2133.75
1698.92
2346.23
2266.99
2688.22
2204.49
9105.44
6268.09
1165.31
2549.65
3175.94
6312.52
9790.82
9507.86
10034.5
10393
10075.7
10436.3
10109.2
10156.1
10342.2
10342.3
10559.2
10160.3
10112.6
10358.8
10264.3
10334
10616.2
10080.2
10430
10144
10689.4
10128.4
10251.8
10013.4
10032.6
10478.5
10794.6
9736.41
8026.91
1598.73
1177.12
1313.74
664.312
253.124
453.997
157.154
312.289
179.428
184.5
372.082
442.415
531.798
367.741
840.469
8649.39
8461.82
1022.89
2968.8
4097.59
7251.6
9761.58
10448.1
9991.28
10023
10393
9550.25
10299
10860.3
9819.07
9998.21
9848.31
9687.27
10232.6
10460.3
10434.7
9198.8
10267
9742.67
10089
10974.4
9757.36
10473.9
9904.49
10237.6
10765.4
10738.5
10092.6
9716.66
2898.67
1435.28
1434.2
2664.46
1028.15
893.731
592.359
177.71
0
147.276
0
68.2097
47.2407
0
0
64.1743
8541.02
7473
1129
2809.46
3460.06
6460.54
9811.93
9742.16
9935.44
9590.92
9861.1
10602
9596.62
9795.22
10341.3
10008.9
10213.6
10564.5
9867.41
10258.5
10266.8
9554.08
10457.1
10270.9
10095.7
9937.32
10226.2
10444.2
10166.2
9658.55
9727.88
10305.6
11031.3
9447.03
3902.41
1702.69
2401.55
1888.62
229.255
517.71
242.584
508.138
51.9326
200.394
0
0
0
0
75.3055
72.1101
9295.88
7580.65
1220.8
1788.11
4025.84
8131.33
9313.37
11022.4
10572.7
9814.32
10000.8
9721.89
10380.1
9743.72
9628.42
9652.44
10500.7
10454.7
10052.9
10954.1
10079.2
10260.5
11665.5
9558.36
10105
10834.1
9492.44
9218.15
10714.4
10597
10595.8
9830.78
10279.2
9595.67
6555.83
4115.9
3212.98
525.153
81.3879
0
86.9159
39.1217
82.076
78.7236
0
138.723
71.0827
70.8857
0
0
9114.91
7065.27
1988.51
1734.6
4258.74
6160.95
9305.37
9456.81
9632.72
9820.54
9844.5
9896.72
10467.3
10392.6
10337.5
10177.5
10020.6
10033.1
10422.8
10275.6
10080
9187.46
10105.6
10780.8
10935.3
10795.8
8651.77
10802.2
10166.4
9866
9782.73
10216.4
10018.5
10318.9
8391.68
6694.46
2717.67
136.994
187.783
83.583
0
0
47.0651
0
132.533
0
78.452
0
143.618
0
8858.1
5221.48
1925.49
1629.16
4192.28
7479.43
9981.6
10370.7
9919.3
10320.6
10196.8
10226.6
10105.7
10853.5
10165.2
9640.35
9843.63
10226.5
10580.5
9897.5
10250.2
10042.1
10987.3
9769.16
10812.1
10107.4
9857.36
10359.1
9969.95
10974.3
10654.8
10167
8882.92
9980.92
8738.69
7338.86
2105.17
43.7992
0
52.801
0
0
0
0
0
89.5596
0
86.3006
0
0
7977.8
6171.42
2114.91
2016.56
4201.85
8690.18
9439.18
9269.26
9662.22
10716.7
10193.5
10224
9942.69
10663.9
10142.5
10120.2
11303.1
9687.35
10588.5
10075.7
9907.5
10049.2
10130.7
10051.4
10174.5
10106.4
10301.4
10513.8
10587.4
9930.17
9858.35