/*--------------------------------*- C++ -*----------------------------------*\
| =========                 |                                                 |
| \\      /  F ield         | OpenFOAM: The Open Source CFD Toolbox           |
|  \\    /   O peration     | Version:  2.3.x                                 |
|   \\  /    A nd           | Web:      www.OpenFOAM.org                      |
|    \\/     M anipulation  |                                                 |
\*---------------------------------------------------------------------------*/
FoamFile
{
    version     2.0;
    format      ascii;
    class       volScalarField;
    location    "13";
    object      p;
}
// * * * * * * * * * * * * * * * * * * * * * * * * * * * * * * * * * * * * * //

dimensions      [0 2 -2 0 0 0 0];

internalField   nonuniform List<scalar> 
197820
(
13693.5
13541.1
13480.1
13463.1
13430.8
13340.1
13189.7
13013.7
12829.3
12644.5
12459.5
12272.1
12081.1
11889.6
11698.8
11506.7
11310.4
11112.1
10915.1
10717.4
10516
10312.9
10109.7
9906.36
9702.62
9498.86
9293.63
9093.48
8891.86
8684.84
8478.72
8269.24
8083.91
7927.78
7800.6
7717.92
7660.96
7637.05
7623.11
7614.95
7606.99
7597.38
7589.97
7585.92
7583.66
7582.95
7582.21
7581.24
7581.39
7580.89
13673.5
13533.1
13480.1
13464.2
13437
13354.1
13191.9
13010.4
12827.5
12645.3
12458.6
12271.6
12081.6
11889.3
11697
11503.9
11314
11117.8
10915.5
10716.1
10514.1
10312.8
10110.2
9905.28
9702.76
9499.56
9296.73
9094.54
8887.57
8683.62
8481.84
8275.21
8072.61
7894.13
7772.54
7691.29
7649.52
7628.21
7616.28
7609.48
7602.58
7596.5
7592.27
7587.06
7584.62
7583.1
7582.19
7581.35
7580.86
7580.76
13663.6
13530.5
13480.2
13465.7
13439.6
13349.1
13187.8
13012.5
12830.2
12646.6
12457.7
12269.4
12076.5
11890.7
11698.8
11506.1
11317.6
11114.7
10915.5
10714.6
10513.6
10314.7
10112
9905.21
9699.91
9496.21
9295.92
9094.34
8885.44
8679.84
8484.5
8283.7
8080.23
7904.02
7784.37
7690.31
7635.84
7615.19
7605.23
7597.61
7593.78
7591.96
7587.6
7584.47
7583.2
7582.9
7582.13
7581.58
7581.74
7582.05
13670.1
13525
13482.4
13466.4
13433.2
13356.1
13198.3
13013.3
12832.5
12648.5
12460.1
12272.4
12082.5
11891.6
11701
11505.9
11312.8
11116.9
10915.1
10713.3
10511.8
10312.1
10111.5
9907.38
9701.95
9498.83
9296.66
9094.03
8890.92
8686.99
8483.21
8274.02
8096.61
7943.03
7795.17
7689.4
7628.05
7602.61
7595.48
7592.51
7589.48
7587.98
7586.33
7584.22
7583.53
7583.08
7582.41
7581.73
7581.14
7580.72
13699.6
13533.7
13478.8
13463.5
13437
13358.7
13194.7
13016.7
12836.1
12649.2
12459.2
12275
12087.4
11894.6
11702.8
11505.9
11312.3
11117
10916.7
10715
10512.3
10312.2
10111.3
9906.08
9704.35
9502.31
9297.69
9096.25
8892.94
8688.56
8489.4
8293.01
8111.91
7954.47
7812.92
7693.53
7619.79
7595.23
7591.67
7589.91
7588.57
7586.92
7586.03
7583.8
7582.74
7582.42
7582.03
7582.03
7581.77
7580.59
13708.3
13528.4
13471.4
13462.6
13444.6
13370.5
13213.2
13023.8
12840.7
12652.9
12464.5
12277.6
12088.8
11895.6
11702.8
11509.6
11314.8
11117.8
10917.9
10717.5
10516
10316.6
10114.6
9906.71
9701.9
9500.14
9299.68
9097.01
8892.14
8693.2
8495.88
8307.01
8128.92
7962.98
7815.97
7695.15
7609.52
7591.4
7590.6
7589.34
7588.49
7586.76
7585.59
7584.31
7582.73
7581.92
7582.03
7581.68
7580.9
7580.44
13681
13534.6
13473.7
13461.7
13445.2
13375
13224.2
13033.5
12849
12659.1
12469.2
12281.3
12090
11895.1
11704.1
11512.2
11316.2
11121.4
10920.2
10719.3
10520.5
10315.3
10113.9
9913.56
9705.03
9499.95
9300.14
9095.4
8895.87
8698.26
8500.59
8314.07
8135.27
7967.63
7814.48
7686.36
7608.35
7590.64
7589.72
7589.07
7588.15
7587.05
7585.6
7583.56
7582.27
7582.04
7581.74
7581.24
7580.92
7579.93
13694.6
13537.3
13473.9
13461
13439.8
13370.8
13240.8
13039.6
12856.2
12669.5
12478.2
12286.3
12093.2
11900.7
11706.5
11510.5
11316.2
11122.3
10921.2
10725.6
10527.7
10320.4
10115.9
9910.22
9707.37
9503.22
9301.88
9099.69
8897.97
8698.24
8505.39
8316.27
8136.26
7970.38
7813.23
7675.03
7603.85
7589.62
7589.45
7588.89
7588.55
7587.37
7585.31
7583.33
7582.48
7582.16
7581.83
7581.47
7580.37
7578.74
13709
13547.1
13477.5
13460.8
13435.6
13365.7
13239.2
13046.5
12861.2
12674.4
12486.9
12292.6
12100.1
11904.3
11709.5
11505.7
11321.3
11139
10928.6
10727.1
10525
10321.1
10117.5
9913
9708.76
9505.6
9302.61
9100.78
8900.19
8701.94
8505.03
8308.67
8137.07
7970.75
7805.83
7662.72
7601.73
7590.02
7588.95
7588.12
7588
7587.98
7586.35
7583.34
7582.23
7582.09
7581.76
7580.83
7579.51
7578.3
13726.2
13572.7
13486.6
13460.4
13432.2
13350.1
13219.5
13041.9
12864.6
12684.5
12499.2
12303.6
12107.7
11910.3
11716.2
11522.4
11324.8
11129.5
10932
10729.5
10526.5
10324.8
10120.5
9913.54
9710.61
9509.62
9303.08
9100.62
8899.93
8703.28
8508.16
8318.56
8131.92
7964.59
7806.92
7659.58
7599.82
7590.6
7589.47
7588.58
7587.7
7587.46
7586.29
7583.43
7582.38
7582.03
7581.52
7580.79
7579.74
7578.04
13738.9
13600.3
13507.3
13466.4
13418.5
13307.8
13188.2
13039.5
12879.8
12702.8
12513.5
12317.2
12116
11912.4
11723
11532.1
11332.7
11133.2
10932.2
10733.8
10532.9
10330.1
10124.7
9918.28
9712.65
9510.71
9307.16
9102.93
8902.69
8705.48
8513.04
8324.88
8141.58
7964.43
7798.96
7662.07
7603.88
7591.48
7589.32
7588.66
7588.27
7587.12
7585.81
7583.82
7582.33
7581.89
7581.57
7581.07
7579.91
7577.81
13740.9
13632.2
13544.9
13465
13378.5
13253.4
13135.2
13050.9
12917.8
12737.9
12535.3
12328.8
12129.1
11929.8
11726.6
11532.1
11338.7
11138
10939
10739.1
10538.4
10335.3
10129.3
9924.91
9720.26
9513.74
9309.18
9108.47
8906.09
8706.11
8510.6
8328.58
8148.05
7966.2
7800.59
7673.53
7610.86
7591.63
7589.51
7588.61
7588.23
7587.38
7585.16
7583.39
7582.84
7582.21
7581.49
7581.15
7580.34
7578.63
13712.9
13534.2
13479.9
13465.7
13424.3
13329.5
13190.6
13012.4
12831
12645.3
12459.8
12271.6
12078.5
11890.9
11700.6
11506.7
11312.9
11113.6
10914.1
10717.8
10516.6
10313
10110.5
9907.33
9704.88
9498.67
9294.27
9093.83
8891.8
8687.3
8480.15
8274.98
8082.23
7903.65
7776.68
7708.33
7663.62
7636.66
7618.96
7611.58
7606.82
7599.5
7589.89
7585.2
7583.79
7583.3
7582.22
7581.68
7581.35
7580.38
13715.7
13540.6
13479.2
13464.5
13429.7
13331
13184.1
13010.1
12827.5
12644.6
12460.9
12272.1
12081.5
11890.3
11697.5
11506.2
11313.3
11115.4
10915.3
10716.8
10514.5
10311.1
10110.9
9909.42
9704.14
9498.82
9297.86
9095.56
8889.97
8684.88
8479.19
8273.56
8065.22
7871.79
7749.15
7685.46
7649.71
7625.52
7610.45
7601.66
7596.5
7593.72
7589.05
7587.27
7585.33
7583.57
7582.4
7581.52
7580.74
7580.38
13704.4
13537
13482.3
13465
13427.6
13338.7
13176.1
13007.8
12833.2
12647.5
12461.2
12271.3
12082
11891.3
11698.6
11506.3
11312.7
11113.4
10915.9
10717.6
10515.5
10313
10109.6
9907.65
9702.37
9499.06
9298.52
9094.62
8886.77
8683.35
8482.78
8277.15
8076.3
7901.14
7758
7678.88
7632.31
7608.57
7597.46
7591.57
7590.84
7590.04
7587.8
7584.49
7582.8
7582.78
7582.18
7581.85
7581.88
7581.06
13709.7
13530.1
13482.2
13468.5
13428.5
13336.6
13182.9
13009.5
12830
12646.9
12461.7
12272.7
12083
11893.5
11701.5
11506.2
11312.2
11115.8
10915.4
10715.5
10514.2
10312.4
10111.1
9906.93
9704.04
9502.29
9298.53
9094.53
8889.04
8686.75
8487.12
8285.44
8096.22
7928.18
7779.18
7676.22
7613.97
7594.61
7590.98
7589.6
7589.16
7588.05
7586.93
7584.46
7584.18
7583.43
7582.29
7581.55
7580.99
7580.24
13722.5
13538.9
13479.4
13465.1
13433.1
13340.5
13187.3
13012.7
12833.3
12648.8
12463
12275.9
12088
11894.1
11700
11509.1
11313.8
11117
10916.3
10713.7
10512.3
10314.5
10114.1
9908.85
9706.15
9501.52
9298.46
9096.97
8893.1
8680.29
8489.92
8305.94
8114.22
7946.8
7800.02
7681.38
7601.03
7590.04
7589.94
7589.47
7588.89
7587.61
7586.52
7584.91
7583.17
7582.4
7581.83
7581.6
7581.53
7580.59
13721.6
13535.9
13476.8
13463.8
13436.6
13350.4
13197
13019.4
12838.3
12652.5
12465
12278.8
12089.2
11896.7
11704.2
11509.2
11313.5
11118
10918.9
10719
10516.8
10315.2
10113.4
9908.59
9704.26
9501.69
9301.01
9097.6
8896.97
8695.03
8495.16
8308.3
8127.79
7958.76
7807.25
7681.08
7596.19
7589.01
7589.69
7589.16
7588.67
7587.7
7586.18
7585.03
7583.19
7582.01
7581.81
7581.55
7580.97
7580.32
13719.5
13535
13474.6
13462.5
13440.2
13361.3
13208.4
13026.7
12844.5
12658.3
12470.2
12282
12091.8
11898.2
11704.5
11512.2
11315.6
11118.9
10922.6
10720.8
10518.9
10315.9
10114.7
9913
9706.45
9499.5
9300.4
9100.92
8899.16
8698.55
8502.42
8315.92
8135.65
7963.43
7804.9
7665.53
7595.25
7588.44
7589.27
7588.89
7588.28
7587.91
7586.58
7584.57
7582.91
7582.11
7581.63
7581.21
7580.68
7579.86
13721.4
13540.8
13477
13461.9
13437.2
13363.7
13217.7
13034.3
12852.1
12664
12476.7
12288.8
12094.1
11897.9
11706.8
11516.1
11319.8
11120.6
10922.8
10724.9
10523.3
10319.7
10116.6
9912.76
9708.04
9504.27
9302.59
9099.76
8898.43
8700.43
8506.49
8319.24
8138
7963.87
7800.38
7651.84
7592.55
7588.23
7589.08
7588.62
7588.07
7587.73
7586.63
7584.94
7583.1
7582.26
7581.55
7580.81
7580.21
7579.3
13739
13555.7
13478.6
13462.1
13434.9
13352.6
13219.9
13038.4
12855.1
12671.7
12486.1
12292.8
12098.1
11896.8
11710.7
11524.7
11324.1
11128.8
10926.4
10724.7
10526.4
10323.8
10119.2
9915.53
9711.06
9505.03
9302.02
9102.69
8899.06
8700.9
8508.21
8317.73
8137.63
7962.73
7789.29
7622.34
7591.09
7588.64
7588.94
7588.28
7587.9
7587.56
7586.74
7584.94
7583.08
7582.1
7581.42
7580.45
7579.37
7578.21
13738.1
13577
13489
13462.1
13432.3
13341.9
13199.1
13035.4
12862.3
12681.4
12494.3
12302.6
12106.5
11909.7
11717.8
11524.6
11326.4
11128.1
10930.7
10728.9
10528.2
10325.6
10122
9918.33
9710.8
9507.09
9305.26
9102.81
8900.29
8705.71
8511.71
8320.11
8135.81
7958.14
7784.07
7615
7591.27
7589.24
7589.37
7588.67
7587.92
7587.33
7586.58
7584.54
7583.25
7582.14
7580.79
7580.58
7579.41
7577.44
13746.6
13601.8
13509.7
13466
13415.7
13305.8
13179.7
13032.4
12870.4
12698.2
12512
12313.3
12116.8
11919.3
11722.7
11528.1
11330.8
11132.5
10932.8
10732.4
10532.8
10330.4
10126.3
9921.17
9708.86
9510.77
9313.52
9104.6
8904.3
8708.28
8514.51
8323.17
8135.61
7954.13
7780.61
7628.48
7594.61
7590.35
7589.16
7588.62
7588.69
7587.59
7585.8
7584.28
7583.12
7581.84
7581.02
7581.03
7579.51
7577.5
13745.3
13629.8
13543.6
13468.5
13383.6
13256.4
13134.4
13038.2
12899.9
12723.9
12531
12328.8
12127.3
11928.1
11727.8
11530.9
11335.7
11138.5
10939.6
10739.4
10536.9
10333.6
10131.4
9927.66
9720.64
9514.78
9311.02
9109.37
8908.6
8708.51
8514.54
8324.49
8137.56
7952.58
7765.43
7650.15
7600.76
7589.46
7589.14
7588.86
7588.48
7587.76
7585.59
7583.75
7582.98
7582.34
7581.27
7580.62
7579.59
7576.61
13730.1
13532.4
13477.6
13463.6
13424.6
13334.8
13186.2
13012.6
12832.6
12649.1
12460.7
12273.1
12084.8
11893.2
11698.9
11503.9
11309.3
11109.6
10917.3
10724.2
10517.7
10315.3
10113.3
9910.4
9705.91
9501.37
9297.31
9092.52
8892.19
8689.69
8484.14
8275.13
8062.14
7872.6
7752.14
7691.94
7653.65
7627.18
7610.45
7605.98
7603.11
7594.79
7588.52
7585.25
7583.39
7583.21
7582.25
7581.75
7581.62
7580.25
13731.7
13543.2
13480.7
13464.2
13421.2
13320.1
13181.1
13010.5
12830.1
12646.5
12461.9
12274.9
12083.4
11891.6
11700.5
11507.2
11312.5
11113.9
10915.6
10717
10516.5
10313.6
10112.3
9909.12
9705.26
9503.72
9298.2
9093.99
8892.51
8687.66
8479.92
8263.74
8047.88
7826.68
7720.22
7673.7
7641.61
7614.95
7600.77
7593.7
7591.49
7590.21
7588.32
7587.81
7586.54
7583.87
7582.78
7582.15
7580.86
7580
13727.3
13544.8
13483
13464.3
13420.8
13323.4
13175.1
13007.1
12829.3
12647.6
12463.6
12274.6
12083.3
11892.5
11700.4
11505.7
11310.6
11116.2
10918
10718.1
10516.4
10312
10111.4
9908.03
9703.86
9502.67
9300.42
9095.17
8889.96
8683.71
8481.05
8272.56
8058.27
7845.42
7726.17
7660.28
7622.11
7601.24
7592.7
7590.95
7590.92
7589.35
7587.85
7585.69
7582.79
7582.26
7582.05
7581.55
7581.64
7581.68
13719.6
13541.7
13483.6
13466.8
13422
13323.4
13176.8
13007.9
12829.6
12646.5
12462.3
12276.7
12087.1
11895
11700.9
11505.7
11310.9
11115
10916
10717
10517
10313.2
10110.6
9908.05
9706.3
9505.67
9299.91
9095.15
8890.88
8687.54
8484.03
8279.62
8084.73
7903.49
7740.94
7654.66
7605.16
7591.71
7590.7
7590.47
7589.29
7587.74
7586.88
7585.19
7584.1
7583.71
7583.16
7581.62
7580.94
7580.14
13706.8
13542.5
13483.4
13465.5
13428.1
13335
13182.6
13010.7
12830.6
12649
12466
12276.8
12087.5
11896.9
11700.5
11507.7
11313.6
11116.4
10917.8
10719.1
10516.9
10311.5
10111.2
9910.39
9708.27
9503.7
9299.57
9098.36
8894.01
8685.84
8489.48
8296.71
8105.99
7934.76
7778.17
7658.26
7593.08
7589.09
7589.96
7589.87
7588.77
7587.45
7586.87
7585.56
7583.54
7582.36
7581.77
7581.65
7581.74
7581.27
13726.2
13543.7
13480.9
13464.7
13428.6
13335.5
13187.1
13015.7
12836
12652.5
12467
12279.1
12089.7
11897.1
11703.8
11512
11314.8
11118.3
10917.8
10717.4
10519.1
10316
10111.8
9909.63
9708.03
9504.25
9302.59
9100.57
8897.13
8692.91
8494.29
8304.41
8122.11
7949.58
7792.47
7660.66
7591.17
7588.58
7589.94
7589.37
7588.81
7588.06
7586.76
7585.8
7583.71
7581.84
7581.66
7581.5
7581.16
7580.38
13714.3
13549.6
13480.8
13463.4
13432.4
13340.4
13197.6
13021.6
12841
12657.7
12471
12281.7
12092.9
11901.2
11704.9
11511.6
11317
11119.4
10920.8
10720.1
10520.5
10316.8
10113.7
9912.56
9708.21
9506.35
9304.9
9101.2
8899.54
8699.05
8499.9
8309.14
8130.14
7957.23
7792.76
7646.08
7590.28
7588.34
7589.28
7588.87
7588.16
7587.55
7586.32
7585.07
7583.62
7582.2
7581.42
7581.15
7580.69
7580.12
13732.5
13544.4
13477.7
13463.7
13437.5
13347.5
13203.9
13026.9
12845.4
12662.5
12475.4
12287.1
12097.8
11903.6
11708.3
11512.9
11317.1
11121.6
10924.9
10724.1
10522.3
10319.2
10116.8
9914.55
9710.21
9507.44
9302.59
9101.18
8901.46
8702.51
8503.78
8314.42
8131.78
7955.03
7785.46
7632.22
7590.56
7588.36
7589.14
7588.64
7587.9
7587.34
7586.22
7585.24
7584.03
7582.34
7581.35
7580.83
7580.05
7579.04
13727.6
13556.8
13481.6
13464
13434.5
13342.3
13211.7
13030.5
12851.6
12669
12481.7
12293
12100.7
11906
11712.7
11517.8
11316.7
11125.6
10933.2
10726.6
10523.4
10321.7
10119.7
9917.53
9713.64
9508.66
9303.8
9102.32
8900.35
8701.05
8507.77
8317.81
8131.36
7953.81
7781.27
7617.35
7592.25
7588.62
7588.77
7588.61
7587.86
7587.28
7586.39
7584.9
7583.9
7582.7
7581.46
7580.53
7579.01
7577.73
13722
13574.2
13493.1
13464.6
13429.7
13332.5
13198.1
13029.4
12857.8
12677.6
12487.7
12300.5
12110.7
11911.9
11717.6
11524.2
11327
11129.3
10927.9
10725.7
10529.4
10329.2
10122.6
9918.04
9714.24
9508.36
9303.98
9102.61
8903.17
8704.56
8510.38
8320.56
8130.52
7949.37
7775.89
7610.66
7592.15
7589.69
7588.8
7588.69
7588.44
7587.39
7586.53
7584.82
7583.46
7582.81
7581.17
7580.72
7579.52
7576.95
13723
13597.7
13510.4
13467.2
13423.1
13303.6
13176.6
13029
12864.1
12689
12503.6
12309.4
12113.7
11919.6
11725.5
11527.7
11328.8
11132.1
10930.3
10731.2
10535.8
10332.6
10127
9921.46
9716.06
9510.64
9307.18
9106.37
8905.6
8707.31
8512.19
8320.05
8127.14
7943.57
7769.79
7620.5
7592.46
7589.53
7589
7588.39
7588.43
7587.71
7586.56
7584.46
7582.86
7582.21
7581.45
7580.54
7579.22
7577.78
13731.9
13622.4
13536.2
13468
13393.7
13270.9
13154.3
13031.3
12884.2
12708.1
12517.4
12320
12125.8
11928.2
11729.5
11532.5
11334.4
11137.3
10936.5
10736.3
10537.6
10336
10129
9927.24
9725.77
9517.55
9309.54
9106.54
8909.42
8712.15
8513.47
8320.56
8129.59
7944.94
7767.58
7629.53
7592.25
7588.84
7589.27
7588.74
7588.65
7587.76
7586.49
7584.56
7583.03
7582.65
7581.24
7580.56
7579.49
7576.63
13726.3
13536.9
13478.4
13458.7
13410.8
13329.9
13204.9
13022.4
12836.3
12649.9
12463.8
12277.3
12088.3
11894.3
11700
11507.3
11312.7
11115.5
10918.6
10713.6
10518.1
10322.5
10115.7
9913.62
9709.52
9503.25
9301.56
9099.9
8894.1
8687.42
8481.14
8269.93
8056.27
7860.18
7734.83
7677.8
7646.89
7623.61
7611.53
7604.71
7602.53
7595.55
7588.22
7585.58
7584.13
7583.02
7582.26
7581.11
7580.76
7580.45
13729.9
13552
13481
13457.5
13413.3
13326.2
13184.6
13014
12834.8
12650.1
12464.3
12276.1
12087
11894.9
11700.9
11509.6
11313.8
11116
10918.3
10717
10516.1
10316.2
10114.3
9912.06
9707.82
9501.3
9301.53
9100.31
8895.53
8689.01
8477.58
8260.54
8019.36
7813.86
7706.88
7663.19
7635.77
7612.64
7599.84
7592.91
7591.18
7590.81
7588.36
7587.39
7586.01
7584.21
7583.5
7582.12
7580.8
7580.04
13735.5
13552.3
13482.1
13459.2
13413.2
13321.9
13176.9
13010.6
12833.4
12649.7
12464
12276.5
12085.8
11895.3
11704.1
11507.5
11311.3
11117.2
10920.5
10718.1
10516.4
10314.8
10113.8
9912.33
9706.51
9502.35
9300.88
9099.05
8893.82
8685.63
8477.91
8259
8040.34
7814.12
7693.72
7652.09
7622.14
7599.94
7592.55
7591.45
7590.45
7588.75
7587.05
7585.39
7583.93
7582.82
7582.32
7581.51
7580.71
7580.44
13725.1
13543.5
13483.4
13462.2
13413.5
13323.6
13175.6
13009.9
12833.3
12650.4
12464.7
12276.6
12086.7
11897
11704
11508
11312.8
11116.1
10917.5
10718.2
10518.5
10314.9
10112.2
9910.03
9706.3
9505.14
9301.27
9099.17
8894.01
8685.59
8480.19
8273.67
8071.62
7881.13
7726.82
7639.2
7601.22
7591.98
7590.99
7590.57
7588.86
7587.36
7587.17
7586.05
7584.17
7583.11
7583.01
7581.68
7580.86
7580.03
13727.1
13547.1
13482.5
13462.9
13418.6
13322.6
13181.4
13011.2
12832.5
12650.6
12468.7
12279.1
12087.5
11897.4
11704.8
11510
11315
11118
10918.4
10717.4
10517.4
10316.1
10113.6
9910.47
9708.51
9505.64
9301.23
9099.52
8894.12
8689.25
8486.18
8287.07
8098.4
7918.82
7761.6
7638.95
7591.27
7589.12
7590.52
7590.05
7588.9
7588.25
7586.87
7585.02
7583.49
7582.84
7582.21
7581.57
7580.87
7580.09
13720.7
13557.9
13484.6
13459.7
13419.9
13330.9
13184.7
13013
12834.6
12652.1
12469.7
12281.7
12090.2
11899.7
11707.2
11511.6
11315.7
11119
10920.1
10718.7
10517
10316
10116.2
9909.9
9707.63
9508.92
9302.68
9099.97
8897.51
8693.93
8492.97
8296.72
8113.7
7940.33
7778.06
7640.56
7590.87
7589.02
7590.34
7589.69
7588.88
7588.01
7587.18
7585.65
7583.43
7581.68
7581.6
7581.24
7580.58
7579.71
13710.5
13553.9
13484.1
13462.5
13423.1
13331.9
13197.5
13016.5
12837.2
12657.6
12473.9
12282.9
12092.2
11902.3
11707.8
11513.9
11319.3
11120.5
10921.6
10720.8
10519.7
10318
10113
9913.62
9713.33
9507.38
9302.91
9101.17
8899.83
8697.62
8496.67
8302.62
8120.09
7947.83
7783.14
7635.54
7590.49
7588.83
7589.49
7589.35
7588.59
7587.55
7587.24
7585.79
7583.61
7582.05
7581.36
7580.76
7580.19
7579.3
13725.1
13548
13479.8
13464.1
13434.2
13335.6
13193.9
13020.9
12842.1
12660.8
12474
12286.8
12098
11904.6
11710.4
11516
11320.6
11122.6
10922.9
10723.2
10521.8
10319.1
10118.5
9916.84
9711.22
9509.02
9304.99
9100.53
8901.04
8700.78
8500.16
8308.45
8125
7947.21
7776.71
7622.31
7590.8
7588.88
7589.12
7588.56
7588.04
7587.65
7586.38
7585.51
7584.85
7583.33
7581.59
7580.76
7579.7
7578.99
13696.2
13554.6
13485.3
13465
13435.6
13335.8
13201.8
13023.1
12844.3
12666.2
12481.1
12292
12101.5
11907.1
11714
11520.8
11323.2
11124.9
10926.1
10726.7
10523
10313.3
10122.2
9926.38
9713.86
9510.72
9305.37
9101.64
8900.12
8701.79
8504.8
8310.91
8125.44
7945.23
7773.03
7614.66
7590.61
7589.13
7589.02
7588.64
7587.94
7587.43
7586.54
7585.1
7584.11
7583.62
7581.94
7580.11
7579.33
7578.6
13703
13569.4
13494.7
13465
13426.6
13325.3
13199.2
13024.9
12851.6
12672.8
12485.5
12299.1
12109.6
11912.5
11717.5
11524.5
11326.9
11126.9
10928
10720.8
10529.1
10335
10123.2
9919.31
9716.24
9511.74
9304.17
9101.95
8904.25
8703.43
8506.11
8312.44
8123.12
7941.45
7767.72
7614.87
7590.49
7589.38
7589.03
7588.64
7588.37
7587.65
7586.66
7585.13
7583.51
7582.88
7581.63
7580.07
7579.28
7577.92
13708.4
13587
13510.3
13466.2
13415.2
13308.7
13183.3
13023.4
12858.2
12682.3
12498.2
12306.8
12112.7
11919.5
11724.2
11526.8
11329
11132.9
10934
10731.2
10533.1
10331.6
10127.2
9922.64
9716.85
9512.18
9305.17
9105.23
8906.69
8705.02
8507.54
8311.47
8121.36
7936.1
7758.96
7609.52
7590.07
7589.58
7589.29
7588.73
7588.4
7587.83
7587.19
7585.38
7583.13
7582.22
7581.31
7579.96
7578.93
7577.76
13726.5
13612.9
13525.7
13463.9
13402
13283.9
13161.5
13025.5
12869.8
12695.5
12509.7
12318.7
12122.4
11924.6
11726
11529.6
11334.6
11137.4
10940.2
10738.6
10537.4
10335.7
10131
9926.66
9722.43
9516.68
9309.74
9108.26
8907.53
8705.68
8509.17
8313.84
8120.2
7934.32
7759.3
7603.62
7589.68
7590.19
7589.57
7588.92
7588.64
7588.12
7587.21
7585.14
7583.72
7582.93
7581.08
7580.14
7579.41
7575.78
13718.9
13531
13471.7
13452.1
13415.1
13341.4
13212
13029.5
12842.4
12657.5
12470.1
12280.6
12087.6
11894.5
11703.3
11512.3
11318
11118.1
10920.2
10720.8
10518.9
10319.9
10119.5
9913.32
9708.16
9507.31
9305.66
9103.69
8897.58
8684.52
8482.73
8280.74
8066.72
7867.72
7727.69
7674.33
7646.75
7626.76
7611.74
7604.79
7600.97
7595.02
7588.85
7586.08
7584.02
7583.17
7582.6
7581.41
7580.3
7579.7
13729.3
13536
13475
13454.8
13410.2
13334.4
13195.4
13021.7
12839.4
12655.9
12469.1
12278
12088
11898.5
11703.5
11509.5
11316.1
11118.2
10921.9
10721.8
10517.6
10316.7
10117.7
9915.59
9709.63
9506.59
9305.52
9102.89
8898
8688.92
8479.75
8266.58
8038.16
7800.26
7699.09
7660.13
7634.7
7614.79
7599.05
7591.09
7590.95
7590.86
7588.33
7587.22
7585.96
7583.95
7582.75
7581.85
7580.71
7579.89
13727.9
13543.6
13474.7
13456.4
13410.6
13324.9
13188.1
13016.1
12837.5
12653.5
12468.3
12280.2
12087.2
11892.5
11706.2
11516
11314.7
11117.6
10921.2
10721.8
10519.3
10317.6
10116.6
9913.02
9708.65
9506.99
9302.88
9099.65
8895.93
8687.69
8478.25
8259.78
8030.61
7784.41
7685.4
7648.94
7622.3
7599.22
7590.92
7590.92
7590.22
7588.41
7587.34
7585.99
7584.06
7582.78
7582.5
7581.96
7580.61
7579.89
13714.2
13534.8
13476.4
13460.8
13417.9
13321.7
13179.3
13013.9
12835.1
12652
12467.1
12280.7
12092.6
11899.9
11705.5
11511.5
11315.1
11118.5
10919.6
10719.6
10519.5
10316.2
10116.7
9914.49
9708.36
9504.84
9303.78
9101.39
8893.34
8685.53
8477.06
8268.05
8059.44
7862.03
7702.36
7634.57
7602.64
7590.57
7591.28
7590.33
7588.8
7588.22
7586.95
7585.42
7584.1
7583.11
7582.36
7581.66
7580.9
7580.42
13719.6
13543.5
13477.1
13459.4
13416.1
13323.9
13184.1
13012.8
12835.5
12653.4
12469.1
12282.3
12092.4
11899.9
11705.8
11512.6
11317.9
11118.2
10919.7
10720.2
10518.7
10317.3
10115.8
9913.85
9707.67
9506.59
9306.45
9101.64
8894.15
8686.96
8478.25
8279.61
8089.73
7901.94
7745.23
7631.21
7591.86
7590.14
7590.55
7589.87
7588.88
7587.87
7586.4
7585.11
7584.22
7582.95
7582.02
7581.48
7581.08
7580.46
13728.6
13548.6
13478.6
13459.3
13420.5
13325.5
13183.8
13014.7
12835.6
12654.3
12472
12284.5
12093.7
11900.8
11705.8
11512.3
11317.5
11120.7
10923
10722.4
10518.4
10317
10117.6
9913.03
9710.26
9509.45
9304.88
9100.78
8897.49
8691.19
8488.47
8290.65
8101.34
7923.12
7764.27
7643.35
7590.49
7589.07
7589.8
7589.82
7588.69
7587.1
7586.35
7585.3
7584.23
7582.57
7581.35
7581.04
7580.4
7579.5
13720.5
13548
13481.4
13462.1
13420.2
13324.8
13188.9
13015.7
12838.4
12656.5
12472.3
12285.5
12096.6
11904.9
11708
11512.9
11319.8
11122.1
10922.2
10723.4
10521.9
10319.1
10118.1
9915.13
9711.82
9508.89
9305
9101.49
8896.3
8693.03
8493.44
8296.37
8109.96
7934.54
7770.74
7628.99
7590.71
7589.09
7589.38
7588.9
7588.07
7587.11
7586.03
7585.59
7584.07
7582.32
7581.35
7580.86
7580.25
7579.54
13721
13548.9
13478.8
13462
13430.7
13332.3
13189.5
13017.1
12840
12658.3
12475
12289.2
12100.1
11905.8
11710.8
11516.7
11320.6
11123.6
10924.6
10724.5
10523.8
10322
10118.7
9915.23
9712.61
9511.97
9307.84
9102.09
8897.57
8695.95
8497.25
8301.21
8112.14
7934.49
7764.09
7630.28
7590.85
7588.76
7589.05
7588.73
7587.71
7587.36
7586.32
7584.94
7584
7582.65
7581.46
7580.61
7579.77
7578.93
13697.8
13553.8
13485.8
13462.8
13430.5
13331.4
13189.1
13018.5
12842.5
12663.6
12481.9
12293
12100
11908.3
11716.7
11521.1
11322.6
11125.6
10927.3
10727.4
10524.7
10322.2
10121.3
9919.22
9714.87
9511.68
9306.73
9100.95
8899.48
8699.76
8499.49
8302.09
8112.18
7932.66
7762.01
7614.54
7590.1
7589.35
7589.18
7588.72
7588.05
7587.18
7586.58
7585.25
7584.08
7583.04
7581.81
7580.22
7579.19
7578.03
13693.1
13566.3
13493
13461.5
13425.5
13325.6
13187.9
13019.5
12848
12669.3
12485.1
12298.1
12107.1
11914.7
11719.5
11523
11327.2
11128.2
10929.8
10729.4
10527.7
10329.6
10125
9919.13
9716.38
9511.28
9305.49
9103.09
8900.74
8697.34
8500.44
8303.99
8109.52
7925.92
7755.95
7611.19
7589.76
7589.68
7589.43
7588.92
7588.38
7587.68
7586.85
7585.59
7583.96
7582.57
7581.34
7580.07
7579.22
7577.72
13706
13582.6
13500
13460.5
13422.5
13308.7
13174
13020.8
12853.9
12675.7
12492.9
12304.9
12112.1
11918.7
11724.2
11527.6
11330.7
11131.6
10933
10734.7
10533.8
10330.7
10127.8
9922.91
9715.73
9511.81
9308.74
9106.3
8901.63
8698.13
8499.61
8302.66
8108.03
7918.91
7744.44
7595.21
7589.39
7590.12
7589.59
7589.13
7588.71
7588
7587.37
7585.84
7583.38
7582.33
7581.58
7580.24
7578.84
7577.4
13735.4
13604.7
13511.7
13455.6
13394.5
13289.4
13170.6
13024.6
12864.5
12688
12501.7
12311.7
12118.2
11923.6
11728.1
11530.5
11333.2
11134.4
10939.3
10742
10539.6
10336.1
10131.2
9926.38
9719.5
9515.39
9310.04
9106.21
8903.71
8700.87
8502.64
8304.14
8105.23
7914.27
7735.8
7590.43
7589.54
7590.15
7589.77
7589.28
7589.06
7588.67
7588.22
7585.83
7582.96
7582.14
7581.6
7580.79
7579.19
7575.21
13710.3
13526.8
13465.1
13447.8
13413.3
13348.5
13229.7
13038.2
12850.4
12663.3
12473.7
12285
12094
11898.9
11697.1
11511.3
11328.7
11127.8
10923.2
10722.1
10521.3
10320.2
10121
9917.27
9713.27
9512.17
9307.79
9104.99
8900.5
8690.5
8490.73
8288.79
8080.33
7886.02
7735.52
7669.51
7647.9
7628.56
7612.55
7602.6
7598.46
7591.5
7587.35
7586.03
7584.06
7582.75
7582.51
7582.12
7580.71
7579.33
13714.8
13517.7
13467.2
13452.6
13408.8
13340.2
13222.3
13031.7
12845.1
12661.8
12476
12283
12092.5
11902.5
11706.8
11512.5
11319.9
11121.5
10922.3
10725
10522.5
10319.2
10118
9914.85
9712.4
9511.81
9308.57
9105.75
8903.13
8695.13
8485.78
8272.27
8049.8
7822.25
7687.34
7651.54
7638.99
7621.82
7601.23
7595.77
7593.97
7591.09
7587.99
7586.81
7585.15
7583.53
7582.6
7581.84
7580.89
7579.86
13716.4
13511.3
13467.7
13458.3
13414.4
13334.3
13197.1
13023
12841.3
12659.8
12472.8
12285
12096.3
11900.4
11706.4
11514.3
11318.5
11121.9
10922.1
10722.5
10522
10320.7
10118.4
9913.97
9711.2
9511.07
9307.62
9098.35
8899.27
8696.97
8479.18
8251.64
8026.65
7760.01
7679.08
7654.25
7632.37
7605.92
7592.69
7591.89
7590.49
7588.38
7586.94
7585.8
7584.27
7583.29
7582.03
7581.3
7580.86
7579.96
13694.6
13514.1
13469.4
13459
13420.9
13339.5
13191.5
13019.5
12838.7
12656.4
12473
12286.3
12094.9
11901.1
11709.1
11515.8
11317.2
11120.3
10922
10722.6
10523
10319.3
10117.7
9914.61
9711.98
9509.15
9305.88
9104.03
8897.73
8690.36
8475.88
8248.08
8045.86
7835.84
7692.64
7637.13
7607.32
7591.93
7590.06
7589.33
7588.64
7587.8
7586.81
7585.46
7583.91
7583.26
7582.5
7581.33
7580.87
7580.21
13711.9
13518.9
13467.7
13458.6
13420.8
13333.7
13196.8
13019.5
12839.4
12656.4
12470.8
12284.8
12095.7
11904.4
11710
11513.5
11319.1
11121.4
10923
10722.7
10521.3
10320.8
10117.1
9914.66
9711.95
9510.24
9306.41
9102.79
8898.97
8689.07
8478.53
8270.79
8070.17
7879.02
7722.85
7631.05
7594.3
7589.78
7590.02
7589.2
7588.18
7587.26
7585.98
7585.36
7584.42
7583
7582.02
7581.36
7580.54
7579.14
13712.6
13540.2
13472.2
13454.7
13419
13337.7
13197.5
13018.2
12837.3
12656.5
12474.9
12286.8
12096.9
11906
11709.9
11514.8
11318.3
11121.7
10924.2
10723.7
10521.7
10319.5
10119.2
9916.66
9712.65
9507.24
9305.17
9104.33
8899.2
8688.03
8481.64
8281.93
8088.26
7903.07
7738.5
7637.47
7593.08
7589.26
7589.52
7589.05
7587.98
7586.77
7586.02
7585.43
7584.21
7582.66
7581.54
7580.97
7580.12
7579.05
13710.8
13539.4
13476.3
13458.5
13422.2
13332.9
13185.5
13015.8
12841.4
12657.7
12474.3
12288.4
12098.5
11906.9
11711.8
11516.4
11321.9
11123
10924.8
10725.3
10523.7
10320.8
10117.8
9915.89
9711.9
9509.12
9307.11
9102.55
8897.24
8692.81
8488.11
8284.68
8094.36
7913.2
7754.9
7636.44
7590.25
7588.81
7589
7588.41
7587.9
7587.22
7586.18
7585.1
7584.1
7582.57
7581.19
7580.72
7580.17
7579.11
13709.3
13543.8
13477.4
13459.7
13426.6
13328.7
13183.9
13015.3
12840.4
12658.8
12476
12291.5
12101.4
11907.6
11713.2
11520.7
11324.4
11124
10926.8
10726.2
10524.2
10322.7
10120.7
9915.45
9713.41
9510.55
9307.31
9103.48
8896.48
8693.05
8490.49
8290.42
8095.6
7916.26
7753.62
7620.52
7590.06
7589.44
7588.98
7588.41
7587.51
7587.03
7586.42
7585.1
7583.96
7582.75
7581.63
7580.84
7580.05
7579.41
13703.8
13551.7
13483.2
13461.4
13420.8
13318.7
13194.5
13018.2
12841
12661.9
12481.4
12294.6
12101.5
11909.3
11718.9
11524.1
11323.5
11124.6
10928.4
10728.7
10528.8
10325.1
10122.2
9920.48
9711.47
9510.91
9310.71
9102.79
8896.47
8692.08
8489.23
8290.31
8097.48
7914.09
7745.18
7604.17
7589.38
7589.85
7589.49
7588.78
7588.03
7587.3
7586.69
7585.49
7584.43
7583.28
7581.82
7580.1
7578.97
7578.12
13701.1
13564.5
13489
13459.8
13422.4
13312.8
13182
13018.6
12845.5
12667.7
12486.7
12298.3
12105.3
11913.7
11721.3
11526.6
11327.3
11128.1
10928
10730.3
10533
10329.9
10126.4
9921.15
9714.7
9511.39
9307.03
9101.54
8897.16
8693.08
8490.28
8288
8091.65
7904.92
7734.04
7594.45
7589.55
7590.32
7589.67
7589.1
7588.58
7587.91
7587.12
7585.97
7584.68
7583.38
7581.84
7579.76
7578.82
7577.56
13688.6
13572.3
13500.1
13459.5
13416
13305
13172.7
13020.5
12855.3
12676.4
12492
12301.9
12110.6
11919.3
11724.4
11527.5
11330.6
11133.1
10935.3
10733.6
10532.1
10331.5
10128.2
9924.78
9719.33
9512.99
9307.52
9102.15
8898.03
8693.39
8489.37
8286.65
8087.4
7893.23
7710.93
7593.03
7589.41
7590.67
7589.94
7589.4
7588.92
7588.29
7587.49
7586.38
7584.19
7582.14
7581.62
7580.62
7579.25
7577.83
13726.2
13591
13505.5
13446.6
13384.3
13292
13176
13027.8
12863
12684.8
12497.9
12308.9
12116.4
11922.2
11728.7
11532.4
11333.3
11136
10938.6
10738.7
10539.2
10337.3
10131.6
9926.03
9721.08
9516.44
9307.64
9096.82
8899.37
8694.7
8489.85
8293.42
8084.5
7881.95
7678.82
7589.97
7590.93
7590.85
7590.26
7589.74
7589.39
7588.91
7588.08
7586.88
7583.82
7581.78
7581.6
7580.9
7579.36
7576.51
13701
13505.5
13461
13440.9
13410.6
13367.4
13250.7
13046.6
12854.5
12669.1
12479.3
12290.4
12102.3
11908.1
11712.7
11517.6
11324.3
11125.1
10922.5
10724.5
10527.2
10322.7
10118.6
9918.89
9719.06
9517.94
9314.9
9112.71
8906.61
8703.92
8503.64
8299.17
8100.91
7916.69
7765.03
7671.64
7647.02
7624.76
7606.4
7596.14
7591.28
7588.79
7586.75
7585.41
7584.69
7583.24
7581.59
7581.45
7581.12
7579.64
13692.9
13496.6
13463.3
13450.7
13412.1
13352.9
13222.1
13038
12853.3
12667.2
12479.5
12290.4
12099.9
11907.9
11713
11518
11321.8
11123
10924.7
10725.4
10524.1
10322.6
10119.7
9918.3
9718.05
9517.4
9315.21
9111.33
8907.16
8702.1
8498.32
8289.45
8074.67
7865.95
7700.5
7648.82
7630.52
7611.94
7598.65
7596.41
7593.84
7589.81
7587.39
7585.85
7584.57
7583.49
7582.62
7581.63
7580.86
7580.22
13702.3
13493.6
13463.9
13456.1
13413.8
13344.1
13206.1
13029.5
12847.1
12664.6
12477.8
12290.6
12102.3
11906.5
11711
11517.4
11321.3
11124.4
10926.2
10724.8