/*--------------------------------*- C++ -*----------------------------------*\
| =========                 |                                                 |
| \\      /  F ield         | OpenFOAM: The Open Source CFD Toolbox           |
|  \\    /   O peration     | Version:  2.3.x                                 |
|   \\  /    A nd           | Web:      www.OpenFOAM.org                      |
|    \\/     M anipulation  |                                                 |
\*---------------------------------------------------------------------------*/
FoamFile
{
    version     2.0;
    format      ascii;
    class       volScalarField;
    location    "13";
    object      pMean;
}
// * * * * * * * * * * * * * * * * * * * * * * * * * * * * * * * * * * * * * //

dimensions      [0 2 -2 0 0 0 0];

internalField   nonuniform List<scalar> 
197820
(
12008.8
11873.1
11760.2
11627.8
11501.8
11379.5
11259.7
11138.6
11014.3
10885.3
10754.6
10622.5
10488.1
10352.5
10216.5
10079.9
9942.84
9808.14
9676.54
9547.4
9419.56
9293.64
9169.2
9045.99
8923.95
8801.86
8678.99
8555.67
8432.86
8310.19
8187.56
8065.57
7943.79
7822.57
7701.7
7580.29
7459.06
7338.06
7216.81
7095.66
6974.06
6852.24
6730.1
6607.35
6483.72
6358.61
6232.6
6105.49
5976.57
5846.27
12012
11872.8
11758.2
11626.1
11500.5
11377.1
11257
11136.1
11011.9
10884.2
10753.8
10621.4
10486.9
10351.1
10214.8
10077.8
9941.05
9806.91
9675.57
9546.25
9418.97
9292.8
9168.46
9045.95
8923.74
8801.45
8678.91
8555.82
8432.46
8309.57
8186.85
8064.84
7943.57
7822.36
7701.35
7580.21
7459.04
7338.24
7217.09
7095.68
6974.42
6853
6731.01
6608.15
6484.48
6359.68
6233.81
6106.56
5977.63
5847.27
12010.1
11870.9
11756.9
11623.5
11496.3
11372.1
11251.8
11131
11007.5
10881.1
10752.2
10619.9
10485.9
10350.2
10212.8
10075.4
9939.22
9805.8
9674.7
9545.23
9417.71
9291.79
9168.24
9045.96
8923.73
8801.45
8678.61
8555.3
8431.86
8308.71
8186.11
8064.4
7943.44
7822.44
7701.29
7580.55
7459.72
7338.61
7217.68
7096.5
6975.25
6853.76
6732.04
6609.69
6486.2
6361.63
6236.06
6109.14
5979.98
5848.77
12008.7
11868.7
11754.2
11619.7
11492.2
11366.3
11244.5
11123.7
11001.9
10876.9
10748.8
10618.3
10485.1
10349.3
10211.7
10074
9938.08
9804.69
9673.67
9544.27
9416.56
9291.14
9167.73
9045.52
8923.2
8800.84
8678.23
8555.04
8431.75
8308.86
8186.63
8064.93
7943.65
7822.75
7702.05
7581.2
7460.22
7339.27
7218.45
7097.29
6976.13
6855.19
6733.8
6611.48
6488.25
6364.17
6238.97
6112.01
5982.74
5850.83
12006.9
11867.4
11753.9
11617.6
11488.6
11361.9
11238.4
11116.8
10994.3
10870.3
10744.4
10615.3
10483
10348
10211.1
10074.1
9938.23
9804.45
9672.93
9543.1
9415.44
9290.43
9167.09
9044.57
8922.41
8800.41
8678.07
8555.21
8432.39
8309.72
8187.49
8065.75
7944.3
7823.34
7702.79
7581.87
7460.79
7339.9
7218.97
7097.83
6976.86
6856.2
6735.05
6613.33
6490.8
6367.04
6242.2
6115.6
5986.06
5853.43
12003.2
11865
11753.1
11617.3
11488.7
11359.9
11234.4
11110.6
10987.5
10863
10737.6
10610
10480
10347.2
10211.8
10075.3
9939.03
9804.23
9671.74
9541.82
9414.63
9289.6
9165.86
9043.27
8921.43
8799.93
8677.92
8555.55
8433.27
8310.93
8188.46
8066.24
7944.85
7824.17
7703.37
7582.18
7460.89
7339.95
7219.09
7098.09
6977.4
6856.66
6735.89
6614.95
6493.36
6370.59
6246.41
6119.97
5990.04
5856.17
11998.8
11863.4
11752.7
11617.4
11490.9
11360.4
11232.9
11106.5
10981.9
10856.9
10731
10603.6
10474
10343
10209.9
10074.7
9938.81
9803.42
9670.53
9540.92
9413.77
9288.33
9164.67
9042.42
8920.94
8799.64
8677.92
8556.22
8434.14
8311.3
8188.79
8066.79
7945.35
7824.46
7703.29
7581.67
7460.47
7339.37
7218.22
7097.43
6976.95
6856.74
6736.77
6616.63
6496.29
6375.26
6252.45
6126.4
5995.83
5860.02
11999.4
11862.8
11750.3
11617
11491.9
11362.4
11233.9
11105.2
10978.4
10851.4
10724.2
10596
10466.6
10336.2
10204.2
10070.9
9936.68
9802.24
9670.2
9540.72
9413.36
9287.47
9163.75
9041.45
8920.17
8799.39
8677.97
8556.35
8434.6
8311.92
8189.53
8067.79
7945.98
7824.3
7702.41
7580.7
7459.4
7337.89
7216.79
7096.35
6976.12
6856.3
6737.4
6618.85
6500.52
6381.45
6260.02
6134.74
6003.9
5865.6
11999.4
11863.1
11750.2
11616.6
11491.8
11364.5
11236.3
11105.1
10975.5
10845.8
10716.4
10587
10457.6
10327.4
10196.6
10065.2
9932.62
9800.5
9669.66
9540.22
9413.01
9287.61
9163.74
9041.44
8920.14
8799.14
8678.09
8557.11
8435.39
8313.04
8190.74
8068.67
7946.24
7823.69
7701.18
7579.13
7457.37
7336.09
7215.34
7094.95
6974.94
6855.82
6738.01
6621.72
6505.69
6388.9
6270.02
6146.65
6016
5874.56
11997.4
11862.8
11751
11616.9
11492
11364.6
11236.3
11103.3
10972
10840.1
10708.7
10578.4
10448.3
10318.5
10188.2
10058
9928.03
9798.46
9669.48
9540.94
9413.75
9288.63
9165.19
9042.86
8921.56
8800.61
8679.13
8557.7
8436.26
8314.02
8191.45
8068.39
7945.28
7822.23
7699.35
7577.05
7455.63
7334.61
7213.79
7093.35
6973.56
6855.42
6739.54
6625.03
6511.47
6397.73
6282.47
6163.1
6034.77
5890.13
11995
11862.8
11751.8
11617.4
11493.5
11365.2
11234.9
11101.2
10968.5
10835.2
10702
10569.6
10438.8
10309.1
10179.8
10051.1
9923.34
9796.28
9669.67
9542.47
9415.78
9290.9
9167.6
9045.43
8923.97
8802.33
8680.54
8558.92
8437.26
8314.26
8190.84
8067.1
7943.53
7820.39
7697.78
7576.04
7454.58
7333.29
7212.22
7091.53
6972.35
6855.91
6741.28
6628.45
6517.54
6407.58
6297.43
6184.68
6063.4
5919.92
11993.2
11861.8
11750.9
11616.7
11493.7
11366
11235.6
11100.7
10966.7
10830.3
10694.9
10561.2
10430.8
10301.9
10174.1
10046.8
9920.86
9795.45
9670.36
9544.77
9418.63
9293.7
9170.61
9048.77
8926.87
8804.76
8682.26
8559.89
8437.24
8313.72
8189.67
8065.48
7941.75
7819.04
7697.02
7575.26
7453.85
7332.46
7210.8
7090.06
6972.16
6856.53
6742.78
6631.61
6523.4
6418.13
6315.13
6213.14
6107.07
5979.99
12017
11875.2
11758.8
11628.2
11503.7
11380.7
11258.7
11136.8
11012.2
10883.8
10752.5
10619
10484.2
10348.5
10212.9
10076.3
9940.06
9806.29
9674.82
9545.75
9418.64
9292.85
9168.47
9045.63
8923.54
8801.57
8679.06
8556.17
8433.23
8310.26
8187.47
8065.29
7943.59
7822.34
7701.28
7580.02
7458.9
7337.83
7216.53
7094.99
6973.61
6852.02
6729.52
6606.48
6482.71
6357.7
6231.82
6104.71
5975.8
5845.46
12018.4
11874.8
11758
11626.8
11502.2
11377.6
11256
11134.9
11010.7
10882.4
10751.1
10617.6
10483.1
10347.5
10211.4
10074.5
9938.35
9804.78
9673.67
9544.74
9417.6
9291.74
9167.73
9045.38
8923.38
8801.26
8678.82
8555.84
8432.52
8309.4
8186.7
8064.79
7943.1
7821.87
7700.97
7580.1
7459.09
7337.69
7216.45
7095.39
6974.12
6852.46
6730.34
6607.37
6483.48
6358.81
6232.92
6105.57
5976.65
5846.21
12016.2
11872.8
11757.4
11624
11498.5
11373.4
11252
11130.7
11006.6
10879.2
10749.2
10616.7
10482.1
10346.1
10209.2
10072.2
9936.33
9803.22
9672.41
9543.49
9416.26
9290.57
9167.28
9045.12
8923.23
8801.07
8678.36
8555.23
8431.84
8308.37
8185.95
8064.23
7942.96
7821.96
7701.01
7580.29
7459.46
7338.21
7217.06
7095.96
6974.85
6853.43
6731.38
6608.76
6485.27
6360.79
6235.09
6107.78
5978.66
5847.76
12013.9
11871.6
11755.3
11621.6
11494.5
11367.9
11245.3
11124.1
11000.6
10874.6
10746.3
10615.2
10481
10344.9
10207.5
10070.3
9935.16
9802.13
9671.2
9542.01
9414.53
9289.77
9166.81
9044.43
8922.46
8800.43
8678.04
8554.97
8431.5
8308.51
8186.4
8064.81
7943.55
7822.5
7701.59
7580.85
7460.04
7338.94
7217.9
7096.82
6975.68
6854.54
6732.87
6610.44
6487.27
6363.27
6237.91
6110.79
5981.46
5849.72
12013
11869.6
11754.4
11620.2
11491.3
11363.5
11239.4
11117
10993.3
10868.4
10741.7
10612
10478.9
10343.5
10206.5
10069.7
9934.66
9801.36
9669.84
9540.18
9413.28
9288.63
9165.41
9043.26
8921.58
8799.77
8677.49
8554.78
8432.04
8309.46
8187.37
8065.49
7944.13
7823.13
7702.27
7581.4
7460.53
7339.54
7218.46
7097.38
6976.43
6855.36
6734.11
6612.31
6489.68
6366.11
6241.03
6114.06
5984.59
5851.93
12009.8
11867.5
11754.2
11619.4
11490.4
11361.3
11235.7
11110.6
10986.3
10861.7
10735.9
10607.4
10476.2
10342.1
10206.2
10069.9
9934.27
9800.29
9668.23
9539
9412.26
9287.48
9164.09
9041.85
8920.26
8798.86
8676.94
8554.84
8432.71
8310.46
8188.11
8065.88
7944.7
7823.94
7702.92
7581.68
7460.53
7339.42
7218.52
7097.55
6976.48
6855.8
6735.14
6613.94
6492.26
6369.57
6245.22
6118.38
5988.33
5854.5
12007.9
11866.8
11752.5
11618.4
11492.1
11361.7
11233.4
11106.4
10981.3
10856
10729.6
10601.3
10470.8
10338.5
10204.6
10069.4
9933.53
9798.91
9666.95
9537.73
9410.75
9285.97
9162.71
9040.47
8919.11
8798.07
8676.45
8554.84
8433.06
8310.8
8188.34
8066.34
7945.27
7824.29
7702.91
7581.32
7459.98
7338.76
7217.7
7096.71
6975.99
6855.76
6735.76
6615.64
6495.19
6374.12
6250.98
6124.6
5993.93
5858.13
12007.9
11866.5
11750.7
11618
11492.9
11363.7
11234.7
11105.2
10978
10850.4
10722.6
10593.7
10463.5
10332
10199.8
10066.2
9931.44
9797.57
9666.21
9537.13
9410.19
9285.08
9161.47
9039.09
8917.94
8797.1
8676.06
8554.71
8433.09
8311.09
8188.96
8067.25
7945.6
7824.05
7702.11
7580.24
7458.67
7337.05
7215.92
7095.35
6975.09
6855.32
6736.32
6617.85
6499.65
6380.47
6258.82
6133.35
6002.07
5863.48
12007.4
11866.6
11750.3
11617.7
11494.1
11366
11237
11105.1
10974.8
10844.8
10714.9
10584.9
10454.7
10323.6
10192.6
10060.6
9927.69
9796.12
9665.66
9536.86
9409.93
9284.73
9161.09
9038.67
8917.36
8796.73
8676.03
8554.93
8433.69
8312.1
8190.05
8068.08
7945.83
7823.32
7700.64
7578.33
7456.29
7334.98
7214.26
7093.93
6973.79
6854.58
6737.21
6620.85
6504.87
6388.24
6269.18
6145.44
6014.28
5872.16
12006.6
11866.9
11750.7
11618.1
11494.5
11366.4
11236.7
11103.2
10970.3
10838.1
10706.6
10575.8
10445.3
10315
10184
10053.4
9923.48
9794.3
9665.42
9536.96
9410.31
9285.59
9162.32
9039.96
8918.51
8797.61
8676.58
8555.7
8434.78
8313.21
8190.78
8067.95
7944.67
7821.37
7698.28
7575.9
7454.31
7333.15
7212.48
7091.97
6972.11
6854.46
6738.99
6624.47
6510.93
6397.29
6281.99
6162.1
6033.05
5887.87
12005.4
11867.4
11751.5
11618.9
11494.8
11365.7
11234.1
11100.2
10966.4
10832.5
10699.3
10567.2
10436
10306
10176.1
10047
9919.48
9792.57
9665.55
9538.47
9412.12
9287.55
9164.47
9042.46
8921.09
8799.55
8678.12
8557.12
8435.88
8313.61
8190.34
8066.35
7942.46
7819.14
7696.39
7574.4
7452.92
7331.57
7210.55
7089.75
6970.96
6855.16
6740.9
6628.32
6517.48
6407.45
6297.12
6184.09
6062.23
5918.06
12004.4
11866.9
11751.3
11617.9
11493.8
11364.8
11233
11097.9
10963.6
10827.2
10691.5
10558.7
10428.6
10299.6
10171
10043.3
9917.36
9791.94
9666.25
9540.34
9414.41
9289.96
9167.39
9045.81
8924.36
8802.35
8680.34
8558.34
8436.13
8312.8
8188.55
8064.22
7940.56
7817.59
7695.3
7573.66
7452.07
7330.51
7208.84
7087.94
6970.64
6856.15
6742.96
6632.02
6523.97
6418.53
6315.33
6212.88
6106.22
5978.02
12016.5
11876.5
11761.2
11631
11505.6
11380.5
11256.8
11134.4
11009.5
10880.1
10747.8
10613.4
10478.3
10343.1
10206.8
10070.4
9935.08
9802.38
9672.11
9543.54
9416.96
9291.87
9167.66
9045.16
8923.5
8801.45
8679.13
8556.31
8433.32
8310.23
8187.45
8065.28
7943.49
7822.15
7701.05
7579.69
7458.42
7337.22
7215.73
7094.37
6973.02
6850.92
6728.45
6605.45
6481.47
6356.28
6230.03
6102.82
5974.11
5844.06
12019.6
11875.1
11759.9
11629.1
11503.8
11378.1
11254.8
11132.8
11008.1
10878.6
10746.3
10612.1
10477.2
10341.7
10205.1
10068.6
9933.28
9800.74
9670.64
9542.37
9415.69
9290.31
9166.78
9044.72
8923.04
8801.11
8678.73
8555.91
8432.69
8309.33
8186.62
8064.63
7942.95
7821.7
7700.66
7579.75
7458.51
7337.05
7215.8
7094.55
6973.15
6851.34
6729.14
6606.18
6482.06
6357.19
6231.2
6103.76
5974.84
5844.55
12019.1
11874.2
11757.9
11626.3
11500.6
11375
11251.4
11129.2
11004.3
10875.3
10744.2
10610.9
10475.8
10339.6
10202.7
10065.9
9930.86
9798.66
9668.8
9540.79
9414.03
9288.77
9166.02
9044.15
8922.5
8800.57
8678.12
8555.23
8431.72
8308.38
8185.79
8064.02
7942.78
7821.64
7700.67
7579.81
7458.82
7337.58
7216.35
7095.13
6973.77
6852.11
6730.07
6607.34
6483.69
6359.08
6233.24
6106.01
5976.75
5845.74
12015.7
11873.4
11756.7
11623.9
11497.3
11370.9
11247.1
11124
10999.1
10871.1
10741.3
10608.9
10474.1
10337.6
10200.2
10063.6
9929.13
9796.94
9667.06
9538.56
9411.74
9287.6
9165.11
9043.08
8921.36
8799.74
8677.54
8554.47
8431.13
8308.48
8186.29
8064.64
7943.26
7822.2
7701.41
7580.51
7459.41
7338.27
7217.06
7095.85
6974.69
6853.25
6731.47
6608.89
6485.66
6361.52
6235.9
6108.61
5979.12
5847.27
12013.5
11871.2
11756.6
11623
11495.6
11367.6
11242.3
11117.7
10992.2
10865.5
10737
10605.4
10471.1
10335.2
10198.3
10062.3
9927.87
9795.32
9664.98
9536.26
9410.15
9285.94
9163.24
9041.38
8919.88
8798.4
8676.42
8553.85
8431.32
8309.09
8187.07
8065.16
7943.79
7822.89
7701.99
7580.88
7459.86
7338.78
7217.56
7096.32
6975.22
6854.16
6732.66
6610.56
6488.02
6364.3
6238.88
6111.75
5981.93
5849.03
12013.8
11869.2
11754.8
11622.2
11495
11365.6
11238.5
11111.7
10985.6
10859.5
10731.4
10600.8
10467.8
10332.9
10197
10061.4
9926.82
9793.67
9662.65
9534.55
9408.7
9284.51
9161.47
9039.56
8918.14
8796.79
8675.09
8553.38
8431.45
8309.49
8187.31
8065.13
7944.33
7823.73
7702.5
7581.06
7459.8
7338.58
7217.39
7096.26
6975.36
6854.52
6733.47
6612.07
6490.34
6367.58
6242.92
6115.85
5985.62
5851.37
12011
11868.7
11754.1
11620.9
11495.3
11365.9
11236.9
11107.8
10980.9
10853.8
10725.4
10595.2
10463.3
10329.8
10195.2
10060.4
9925.93
9792.21
9660.96
9532.88
9406.99
9282.68
9159.47
9037.39
8916.21
8795.31
8673.9
8552.58
8431.05
8309.25
8187.32
8065.55
7944.87
7824.17
7702.54
7580.76
7459.2
7337.85
7216.6
7095.58
6974.82
6854.35
6734
6613.73
6493.29
6372.11
6248.8
6122.19
5991.21
5854.74
12010.8
11868.8
11753.2
11620.1
11495.4
11366.2
11237.6
11107
10977.7
10848.4
10719
10588.4
10456.7
10324.1
10191.4
10057.9
9923.85
9790.8
9660.11
9531.66
9405.59
9281.22
9157.75
9035.2
8914
8793.46
8672.78
8551.73
8430.62
8309.65
8188.22
8066.71
7945.26
7823.91
7701.97
7579.88
7457.91
7336.26
7214.94
7094.1
6973.83
6854.05
6734.76
6616.21
6497.92
6378.58
6256.86
6130.96
5999.15
5859.88
12009.2
11869.3
11754
11620.7
11496.8
11367.8
11238.1
11106
10974.1
10842.8
10711.5
10580.1
10448.6
10317.1
10185.5
10053.3
9920.88
9789.57
9659.26
9530.69
9404.5
9280.16
9156.62
9033.85
8912.61
8792.52
8672.29
8551.87
8431.34
8310.58
8189.42
8067.69
7945.53
7823.38
7700.62
7577.79
7455.36
7333.91
7212.96
7092.36
6972.35
6853.35
6736.14
6619.85
6503.64
6386.79
6267.49
6143.32
6011.53
5868.66
12008.2
11869.9
11755.4
11622
11497.5
11367.5
11236.9
11103.6
10969
10835.3
10703
10571.3
10440.3
10309.5
10178.2
10047
9916.98
9787.81
9658.73
9530.3
9404.14
9279.93
9156.97
9034.7
8913.16
8792.96
8673.08
8552.86
8432.66
8311.76
8190.07
8067.41
7944.14
7820.9
7697.65
7574.79
7452.87
7331.67
7210.75
7090.11
6970.65
6853.61
6738.38
6623.98
6510.18
6396.43
6280.86
6160.43
6030.88
5884.74
12008
11870.4
11756.3
11622.3
11496.5
11366.1
11234.1
11099.3
10964.2
10828.3
10694.5
10563
10432.1
10301.4
10170.9
10041.2
9913.16
9785.97
9658.54
9531.23
9405.42
9281.37
9158.75
9037.37
8916.13
8795.04
8674.87
8554.66
8433.78
8312.16
8189.35
8065.54
7941.46
7817.86
7694.86
7572.59
7450.93
7329.57
7208.35
7087.53
6969.69
6854.7
6740.77
6628.39
6517.47
6407.2
6296.65
6183.11
6060.38
5914.95
12007.9
11870.1
11755
11620.7
11494.6
11363.8
11230.5
11094.6
10959.2
10822.4
10687.3
10555.5
10425
10295.5
10166.1
10037.9
9911.24
9785.01
9658.64
9532.2
9406.89
9283.71
9162
9041.19
8920.47
8798.75
8677.09
8556.15
8434.6
8311.44
8187.18
8062.59
7938.7
7815.76
7693.42
7571.39
7449.6
7327.82
7206.02
7085.82
6969.78
6855.94
6743.38
6632.91
6524.68
6418.93
6315.37
6212.2
6104.29
5973.79
12016.8
11876.3
11763.3
11633
11507.2
11380.2
11255.1
11131.3
11005.5
10875.1
10741.8
10607
10471.8
10336
10199.8
10064
9930.22
9798.66
9669.03
9541.16
9415.08
9290.38
9166.92
9044.73
8923.13
8801.61
8679.52
8556.77
8433.46
8310.37
8187.71
8065.45
7943.53
7821.9
7700.58
7579.21
7457.86
7336.42
7214.67
7093.22
6971.67
6849.59
6727.19
6603.85
6479.48
6354.32
6228.16
6100.63
5971.8
5841.72
12021
11876.2
11760.9
11630.4
11504.7
11378.5
11253.9
11129.9
11004
10873.3
10740.2
10605.6
10470.4
10334.2
10197.5
10061.6
9927.77
9796.42
9667.29
9539.67
9413.5
9288.55
9165.76
9044.13
8922.68
8800.97
8678.83
8556.04
8432.7
8309.38
8186.6
8064.68
7942.94
7821.39
7700.2
7579.07
7457.74
7336.21
7214.7
7093.41
6971.96
6850.05
6727.49
6604.16
6480.17
6355.1
6228.88
6101.48
5972.55
5842.22
12018.7
11875.1
11759.7
11628.4
11502.5
11376.4
11251.5
11127.1
11000.5
10870.1
10737.7
10603.4
10468
10331.5
10194.6
10058.3
9924.73
9793.67
9664.73
9537.36
9411.12
9286.61
9164.5
9043.14
8921.72
8800.12
8677.96
8554.97
8431.42
8308.19
8185.75
8063.99
7942.62
7821.39
7700.31
7579.23
7457.98
7336.58
7215.24
7094
6972.55
6850.64
6728.25
6605.28
6481.72
6356.97
6230.9
6103.47
5974.09
5843.11
12015.5
11872.9
11758.9
11626.7
11500.2
11373.1
11248.7
11123.3
10996.2
10866.5
10735
10601
10465.2
10328.5
10191.3
10055.4
9922.02
9791.22
9662.23
9534.5
9408.3
9284.79
9162.93
9041.72
8920.34
8798.76
8676.75
8553.68
8430.44
8307.86
8185.83
8064.3
7943.2
7822.04
7700.95
7579.94
7458.7
7337.33
7215.96
7094.57
6973.28
6851.69
6729.51
6606.8
6483.54
6359.36
6233.6
6105.98
5976.23
5844.27
12013.7
11871.2
11757.6
11625.1
11499.1
11371.3
11245.4
11118.4
10990.7
10861.7
10730.9
10597.1
10461.5
10325.2
10188.7
10053.2
9919.74
9788.81
9659.47
9531.45
9405.93
9282.44
9160.56
9039.5
8918.36
8796.81
8674.69
8552.13
8430.04
8308.11
8186.04
8064.4
7943.4
7822.78
7701.77
7580.45
7459.05
7337.61
7216.34
7095.08
6973.82
6852.5
6730.63
6608.33
6485.66
6361.84
6236.3
6108.88
5978.84
5845.66
12011.9
11870.1
11757.3
11624
11498.7
11370.8
11242.4
11113
10984.9
10856.4
10725.6
10592.3
10457.7
10322.4
10186.7
10051.8
9918.01
9786.5
9656.93
9529.43
9404.12
9280.39
9158.05
9036.75
8915.65
8794.41
8672.46
8550.89
8429.56
8307.73
8185.7
8064.04
7943.75
7823.69
7702.61
7580.86
7459.34
7337.86
7216.55
7095.27
6974.14
6853.01
6731.64
6609.94
6487.9
6364.88
6240.18
6112.9
5982.37
5847.76
12010.9
11869.7
11756.9
11622.8
11497.6
11369.9
11241.1
11109.9
10980.3
10850.7
10719.7
10587
10453.4
10319.2
10184.8
10050.6
9916.81
9784.31
9654.62
9527.43
9401.81
9277.46
9154.85
9033.52
8912.74
8791.85
8670.57
8549.44
8428.48
8307.28
8185.85
8064.64
7944.59
7824.55
7703.11
7580.93
7459.09
7337.55
7216.08
7094.71
6973.66
6853.06
6732.54
6611.86
6490.98
6369.57
6246.13
6119.12
5987.59
5850.91
12010.4
11870.2
11757.1
11622.9
11497.3
11368.2
11240.2
11108.6
10977.1
10845.7
10714
10581.5
10448.4
10315
10182.2
10048.8
9915.11
9782.23
9652.42
9525.21
9399.88
9275.36
9151.64
9029.99
8909.48
8789.45
8669.12
8548.45
8428.07
8307.75
8187.02
8066.01
7945.33
7824.59
7702.79
7580.18
7457.96
7336.06
7214.27
7093.17
6972.52
6852.53
6733.29
6614.6
6496.05
6376.66
6254.55
6127.97
5995.5
5855.86
12011
11871.7
11757
11623.9
11498.6
11368
11238.4
11106.4
10973.2
10840.1
10707.1
10574.4
10442.2
10309.8
10177.6
10045.2
9912.6
9780.86
9650.54
9522.95
9397.61
9273.44
9149.56
9027.28
8907.51
8788.38
8668.63
8548.7
8428.72
8308.73
8188.25
8067.09
7945.52
7823.92
7701.47
7578.19
7455.54
7333.45
7212.02
7091.08
6970.91
6852.07
6735.02
6618.5
6502.24
6385.22
6265.48
6140.63
6008.05
5864.61
12010.8
11872.5
11758.5
11625.1
11498.2
11366.4
11235.7
11102.9
10968.3
10833.2
10699.5
10566.9
10435.2
10303.6
10171.6
10039.8
9909.01
9779.22
9649.64
9521.21
9395.63
9272.18
9149.9
9027.83
8907.5
8788.79
8669.39
8549.77
8429.88
8309.61
8188.62
8066.65
7944.14
7821.56
7698.38
7574.91
7452.17
7330.65
7209.45
7088.58
6969.43
6852.88
6737.68
6623.16
6509.27
6395.42
6279.41
6158.38
6027.93
5880.98
12010.4
11872.9
11759.9
11625
11496.4
11363.7
11231.8
11097.9
10962.6
10825.5
10690.8
10558.9
10428.1
10296.5
10164.8
10034.4
9905.42
9777.39
9649.08
9521.23
9395.62
9273.05
9152.3
9031.67
8910.31
8790.71
8671.43
8551.42
8430.81
8309.82
8187.66
8064.2
7940.84
7817.78
7694.65
7571.89
7449.64
7327.81
7206.27
7085.87
6969.08
6854.52
6740.8
6628.35
6517.26
6406.85
6295.97
6181.74
6057.82
5911.17
12010.9
11872.4
11758.5
11623.5
11494.1
11360.9
11226.8
11091.1
10955.2
10818.1
10683.3
10551.8
10421.2
10290.5
10159.9
10030.8
9903.23
9776.09
9648.63
9521.83
9397.55
9276.14
9156.22
9036.44
8915.79
8794.06
8673.52
8552.8
8431.57
8308.88
8184.57
8060.04
7936.69
7814.27
7692.06
7569.89
7447.72
7325.39
7203.41
7084.79
6969.96
6856.59
6744.32
6633.8
6525.33
6419.33
6315.34
6211.26
6101.69
5968.28
12017.7
11877
11764.7
11633.2
11506.8
11380.1
11253.3
11126.8
10999.6
10868.9
10735.1
10600.1
10465
10329.1
10193.6
10059.2
9926.54
9796.04
9667.38
9539.8
9413.89
9289.42
9166.4
9044.64
8923.39
8802.01
8679.98
8557.27
8434.17
8310.97
8188.01
8065.45
7943.49
7821.67
7700.14
7578.83
7457.13
7335.39
7213.62
7091.92
6970.28
6848.06
6725.19
6601.59
6477.39
6352.27
6225.98
6098.44
5969.34
5839.12
12021
11877.4
11761.5
11631.3
11505.6
11378.6
11252.1
11125.5
10998.1
10866.8
10733.3
10598.3
10462.8
10326.7
10190.7
10056.2
9923.83
9793.4
9664.88
9537.68
9411.92
9287.4
9164.94
9043.67
8922.54
8801.08
8679.11
8556.37
8433.08
8309.6
8186.6
8064.53
7942.86
7821.2
7699.79
7578.48
7456.85
7335.12
7213.51
7092.03
6970.43
6848.26
6725.5
6602.1
6478.04
6352.98
6226.71
6099.1
5970.01
5839.49
12017.8
11875.2
11760.5
11630
11504.4
11376.9
11250.5
11123.7
10995.5
10864
10730.5
10595.7
10459.7
10323
10186.8
10052.2
9919.68
9789.74
9661.62
9534.83
9409
9285
9163.28
9042.16
8921.01
8799.6
8677.66
8554.82
8431.32
8307.92
8185.53
8063.84
7942.6
7821.22
7699.91
7578.6
7457.19
7335.59
7213.99
7092.49
6970.93
6848.93
6726.33
6603.38
6479.71
6354.86
6228.77
6101.08
5971.37
5839.97
12012.7
11872.4
11760
11628.7
11502.5
11374.7
11248.5
11121.3
10992.5
10861
10727.7
10592.6
10456.2
10319.2
10182.5
10047.9
9915.95
9786.3
9658.08
9531.07
9405.56
9282.6
9161.08
9040.02
8918.87
8797.34
8675.49
8552.7
8429.71
8307.27
8185.12
8063.61
7942.82
7822
7700.6
7579.15
7457.72
7336.25
7214.76
7093.2
6971.65
6849.9
6727.55
6604.89
6481.61
6357.22
6231.22
6103.35
5973.14
5840.74
12010.6
11870.3
11758.3
11626
11500.9
11373.8
11246.6
11118.1
10988.3
10856.9
10723.8
10588.4
10452.2
10315.5
10178.6
10044.5
9912.83
9782.96
9654.38
9527.09
9402.2
9279.58
9158.06
9037
8915.97
8794.43
8672.49
8550.35
8428.51
8306.71
8184.76
8063.42
7942.96
7823.02
7701.99
7580.16
7458.57
7337.03
7215.55
7094.04
6972.59
6850.96
6728.86
6606.57
6483.78
6359.67
6233.81
6105.85
5975.27
5841.68
12010.8
11869.7
11757.1
11623.7
11499.7
11372.7
11244.7
11114
10983.6
10852.5
10719.3
10584.1
10448.5
10312.6
10176.5
10042.1
9910.22
9780.07
9651.11
9524.32
9399.31
9276.32
9154.7
9033.61
8912.32
8790.91
8669.39
8548.17
8427.31
8305.94
8184.42
8063.38
7943.8
7824.27
7703.42
7581.29
7459.41
7337.76
7216.14
7094.48
6972.97
6851.59
6730
6608.24
6485.96
6362.6
6237.51
6109.82
5978.81
5843.69
12010.6
11870.3
11758
11622.4
11497.7
11370.4
11242.2
11110.6
10979.3
10847.4
10714.2
10579.9
10445.1
10310.3
10175.3
10040.6
9908.07
9777.34
9648.48
9521.75
9396.21
9272.35
9150.6
9029.22
8908.45
8787.66
8666.61
8546.25
8426.08
8305.59
8184.79
8064.35
7944.89
7825.28
7704.27
7581.81
7459.67
7337.77
7215.94
7094.26
6972.95
6851.69
6730.72
6609.85
6488.97
6367.44
6243.67
6116.25
5984.26
5846.87
12012
11871.7
11758.9
11623.7
11496.9
11367.7
11239.2
11108.5
10976.4
10843.4
10709.9
10576
10442.2
10307.7
10173.5
10039.3
9905.57
9774.18
9645.72
9518.94
9393.42
9268.7
9145.89
9024.94
8904.85
8784.87
8664.87
8545.13
8425.61
8306.2
8186.17
8065.9
7945.79
7825.56
7704.14
7581.28
7458.79
7336.45
7214.2
7092.7
6971.82
6851.41
6731.76
6612.8
6494.11
6374.52
6251.99
6125.1
5992.33
5852.24
12014.2
11873.4
11758.7
11624.5
11497.3
11366.5
11236.7
11105.7
10972.9
10838.5
10704.2
10570.5
10437.2
10303.9
10170.6
10036.9
9903.19
9771.34
9642.51
9515.75
9390.24
9265.61
9142.58
9021.99
8902.71
8783.9
8664.32
8545.04
8426.09
8306.81
8186.93
8066.63
7945.84
7824.82
7703
7579.53
7456.33
7333.42
7211.32
7090.22
6969.84
6850.96
6733.75
6617.04
6500.55
6383.26
6263.15
6137.77
6004.62
5860.92
12014.6
11875.1
11760.6
11624.9
11495.6
11363.3
11233.1
11101.6
10968.2
10832.7
10697.5
10563.8
10431.1
10298.3
10165.8
10033.1
9900.54
9769.04
9639.55
9512.25
9387.16
9264.46
9143.04
9022.23
8902.79
8783.92
8664.72
8545.65
8426.56
8307.06
8186.98
8065.77
7943.98
7822.24
7699.59
7575.92
7452.35
7329.75
7208.14
7087.24
6968.54
6852
6736.57
6622.18
6508.21
6393.91
6277.47
6155.79
6024.54
5876.82
12015.3
11876
11762
11625.3
11493.2
11359.5
11228.3
11095.6
10961.5
10825.1
10689.3
10555.9
10423.9
10291.5
10159.3
10027.7
9897.22
9767.19
9637.75
9510.3
9386.42
9265.88
9145.87
9025.72
8905.35
8785.93
8666.44
8546.66
8427.05
8306.94
8185.38
8062.49
7940.05
7817.76
7694.82
7571.57
7448.66
7326.34
7204.53
7084.89
6968.73
6853.99
6740.32
6628.03
6516.72
6406.14
6294.98
6179.83
6054.81
5906.91
12017.6
11876
11760.2
11624
11491.2
11356.5
11223.2
11088.1
10952.7
10816.3
10681.6
10548.9
10417.2
10285.1
10153.3
10023.2
9894.48
9766
9637.83
9511.56
9388.52
9269.14
9150.33
9030.74
8910.35
8789.57
8668.88
8547.96
8427.2
8305.11
8181.16
8057.21
7934.51
7812.4
7690.58
7568.59
7446.26
7323.86
7202.13
7084.65
6970.05
6856.58
6744.54
6634.05
6525.56
6419.64
6315.23
6210.19
6098.75
5961.96
12015.7
11876.5
11764.1
11631.7
11505
11377.7
11249.1
11121
10992.7
10861.3
10727.3
10593.1
10458.9
10324.5
10190.6
10057.2
9925.52
9795.42
9666.67
9539.73
9414.22
9289.71
9166.85
9045.33
8924.1
8802.67
8680.61
8557.95
8434.92
8311.59
8188.49
8065.87
7943.57
7821.53
7699.82
7578.06
7456.18
7334.25
7212.44
7090.69
6968.74
6846.44
6723.39
6599.71
6475.51
6350.28
6223.77
6095.92
5966.76
5836.27
12018.8
11876.7
11761.2
11630.2
11504.2
11377
11248.6
11119.7
10990.5
10858.3
10724.9
10590.7
10456.4
10321.7
10187.2
10053.8
9922.2
9792.23
9663.93
9537.14
9411.59
9287.1
9164.82
9043.7
8922.65
8801.37
8679.41
8556.57
8433.37
8310.01
8186.94
8064.69
7942.77
7820.83
7699.12
7577.56
7455.91
7334.06
7212.33
7090.61
6968.78
6846.59
6723.76
6600.35
6476.24
6350.99
6224.57
6096.7
5967.37
5836.69
12015.9
11873.7
11760.2
11629.1
11503.6
11376.2
11247.7
11118.6
10988
10855.5
10722.1
10587.5
10452.5
10317.2
10182.6
10049.2
9917.37
9787.6
9659.72
9533.09
9407.75
9284.11
9162.57
9041.53
8920.32
8799.04
8677.04
8554.27
8431.03
8307.82
8185.3
8063.67
7942.21
7820.71
7699.25
7577.79
7456.24
7334.46
7212.73
7091.17
6969.53
6847.43
6724.66
6601.65
6477.94
6352.92
6226.54
6098.51
5968.5
5837
12012.3
11870.8
11759.2
11627.5
11502.2
11374.9
11246.7
11116.7
10985.7
10852.8
10719.3
10584.2
10448.4
10312.2
10177.4
10043.6
9912.23
9783.18
9655.34
9528.49
9403.49
9280.82
9159.52
9038.56
8917.37
8795.99
8674.04
8551.45
8428.63
8306.27
8184.52
8063.28
7942.56
7821.69
7700.27
7578.71
7457.17
7335.58
7213.98
7092.32
6970.8
6848.75
6726.2
6603.41
6479.84
6355.06
6228.77
6100.6
5969.97
5837.35
12011
11868.9
11757.1
11624.8
11500.1
11373
11245.3
11115
10983.1
10850
10716.1
10580.9
10444.5
10307.5
10172.1
10038.9
9908.12
9778.8
9650.8
9524.07
9399.56
9277.19
9155.75
9034.54
8913.33
8791.75
8669.9
8548.23
8427.06
8305.58
8183.9
8062.89
7942.96
7823.29
7702.27
7580.32
7458.56
7336.86
7215.2
7093.55
6971.95
6850.06
6727.71
6605.22
6482.03
6357.62
6231.48
6103.16
5972.1
5838.29
12010.6
11869
11756
11621.8
11497.6
11370.5
11243.2
11112.2
10979.8
10846.8
10713
10578.1
10442.1
10305.1
10168.3
10035.3
9904.49
9775.14
9646.85
9520.49
9396.04
9273.25
9151.47
9030.13
8908.63
8787.18
8665.96
8545.41
8425.42
8304.72
8183.64
8063.3
7944.32
7824.99
7704.18
7581.98
7459.95
7338.02
7216.06
7094.31
6972.62
6850.91
6728.89
6606.87
6484.36
6360.75
6235.32
6107.26
5975.83
5840.46
12011.5
11870.6
11757.3
11621.3
11494.8
11367.2
11238.6
11108.2
10976.4
10843.6
10709.8
10574.9
10439.3
10303.3
10166.9
10032.9
9901.82
9772.12
9643.56
9517.22
9392.39
9268.63
9146.53
9025.18
8904.08
8783.35
8662.94
8543.3
8423.73
8304.06
8183.98
8064.32
7945.47
7826.16
7705.62
7583.06
7460.58
7338.17
7215.85
7093.8
6972.14
6850.71
6729.59
6608.63
6487.68
6365.82
6241.58
6113.87
5981.53
5843.93
12012.9
11873
11759.7
11623.1
11494.5
11364.9
11234.8
11104.7
10973.9
10840.8
10706.4
10571.5
10436.3
10301.1
10166.2
10031.3
9899.06
9768.72
9640.04
9513.46
9388.17
9263.95
9141.8
9020.66
8900.23
8780.29
8660.85
8541.76
8423.06
8304.33
8184.91
8065.43
7946.21
7826.47
7705.54
7582.73
7459.74
7336.76
7214.14
7091.98
6970.61
6850.14
6730.65
6611.54
6492.83
6373
6250.11
6122.61
5989.67
5849.68
12015.3
11875.2
11760.5
11624
11494.9
11363.4
11232.6
11101.6
10970.2
10836.7
10701.3
10566.3
10431.8
10298.1
10164.4
10029.9
9895.87
9764.91
9636.18
9508.92
9383.16
9259.92
9138.59
9018.1
8898.31
8779
8660.15
8541.53
8423.03
8304.37
8185.2
8065.66
7945.64
7825.43
7704.37
7580.84
7456.97
7333.58
7210.6
7088.74
6968.36
6849.75
6732.35
6615.65
6499.27
6381.87
6261.22
6135.36
6001.99
5858.28
12017.1
11877.8
11762
11624
11492.9
11359.6
11228.6
11097.2
10965
10830.9
10695.2
10560.6
10427.1
10293.8
10160.7
10027.1
9893.24
9761.39
9632.19
9504.93
9380.31
9258.79
9138.52
9018.44
8898.62
8779.1
8660.02
8541.44
8422.83
8303.98
8184.61
8064.24
7943.32
7822.47
7700.54
7576.66
7452.76
7329.04
7206.49
7085.51
6967.43
6850.73
6735.27
6621.1
6507.24
6392.44
6275.48
6153.34
6021.43
5873.43
12020.1
11879.6
11763.1
11624.4
11490
11355.3
11223.1
11090.7
10957.8
10823.3
10688.4
10554.2
10421.1
10288.1
10155.3
10022.3
9889.83
9758.57
9629.58
9503.23
9380.28
9259.79
9140.26
9020.94
8901.11
8781.05
8661.17
8541.76
8422.85
8303.15
8182.05
8060.05
7938.56
7817.19
7694.87
7571.73
7448.15
7324.85
7202.9
7083.98
6967.93
6852.75
6739.44
6627.42
6516.02
6405.13
6293.69
6177.77
6051.4
5902.27
12022.9
11880.9
11762.3
11624.2
11489
11353.1
11218.4
11083.5
10949
10814.4
10680.6
10547.8
10415
10282.2
10149.2
10017.3
9887.14
9757.53
9629.6
9504.26
9382.45
9263.43
9144.27
9025.04
8905.19
8784.62
8663.19
8542.13
8421.78
8300.26
8176.77
8053.68
7931.84
7810.79
7689.55
7567.71
7445.26
7322.56
7201.13
7084.31
6969.26
6855.68
6743.97
6633.97
6525.71
6419.53
6314.73
6208.88
6095.54
5956.45
12015
11875.8
11762
11628.6
11501
11373.1
11243.8
11113.8
10983.7
10852.8
10720.9
10588.2
10455.4
10323
10190.9
10058.7
9927.09
9797.06
9668.64
9541.79
9416.14
9291.44
9168.47
9046.95
8925.5
8804.22
8682.09
8559.32
8435.94
8312.29
8189.23
8066.36
7943.67
7821.39
7699.23
7577.23
7455.41
7333.51
7211.46
7089.53
6967.38
6844.86
6721.85
6598.27
6473.94
6348.38
6221.67
6093.64
5964.15
5833.37
12019.6
11875.9
11759
11627.4
11500.6
11372.6
11243
11111.7
10981
10850.3
10718.5
10585.9
10453.2
10320.2
10187.5
10055.3
9923.76
9793.73
9665.63
9538.8
9413.01
9288.2
9165.81
9044.46
8923.39
8802.27
8680.36
8557.53
8434.13
8310.66
8187.31
8064.73
7942.55
7820.34
7698.43
7576.6
7454.91
7333.17
7211.38
7089.55
6967.73
6845.37
6722.43
6598.99
6474.58
6349.2
6222.72
6094.45
5964.41
5833.34
12016.5
11873.6
11758.4
11626.5
11499.8
11371.7
11242.1
11110.5