/*--------------------------------*- C++ -*----------------------------------*\
| =========                 |                                                 |
| \\      /  F ield         | OpenFOAM: The Open Source CFD Toolbox           |
|  \\    /   O peration     | Version:  2.3.x                                 |
|   \\  /    A nd           | Web:      www.OpenFOAM.org                      |
|    \\/     M anipulation  |                                                 |
\*---------------------------------------------------------------------------*/
FoamFile
{
    version     2.0;
    format      ascii;
    class       volScalarField;
    location    "13";
    object      solidfractionMean;
}
// * * * * * * * * * * * * * * * * * * * * * * * * * * * * * * * * * * * * * //

dimensions      [0 0 0 0 0 0 0];

internalField   nonuniform List<scalar> 
197820
(
0.529484
0.438075
0.47218
0.459531
0.45231
0.444455
0.449263
0.456086
0.466697
0.473807
0.478754
0.485611
0.492549
0.497709
0.502606
0.509405
0.510082
0.512458
0.512337
0.514092
0.516099
0.516703
0.518461
0.516526
0.513047
0.513501
0.514371
0.51367
0.512865
0.513096
0.51278
0.511665
0.5118
0.510248
0.509366
0.508827
0.507451
0.506367
0.505529
0.504815
0.50589
0.504817
0.505277
0.504868
0.505547
0.506286
0.505872
0.506682
0.507602
0.506555
0.53
0.449317
0.476021
0.460546
0.454321
0.445424
0.449545
0.456512
0.467217
0.476067
0.483958
0.489521
0.496777
0.501248
0.506588
0.51001
0.511904
0.511898
0.512818
0.512916
0.514391
0.515884
0.515071
0.509573
0.506454
0.507449
0.508145
0.509069
0.508618
0.508713
0.508778
0.505671
0.503553
0.502166
0.500772
0.499529
0.498036
0.496774
0.497059
0.496889
0.496288
0.497228
0.498042
0.498417
0.498558
0.499406
0.500729
0.500947
0.502036
0.502992
0.528871
0.442934
0.470697
0.457407
0.446584
0.438048
0.439504
0.446359
0.455483
0.466289
0.478062
0.486306
0.492372
0.49903
0.503883
0.506202
0.505198
0.503529
0.503065
0.503949
0.50548
0.506919
0.503941
0.500763
0.50137
0.504058
0.506184
0.506407
0.505624
0.503879
0.49956
0.494631
0.491956
0.490754
0.488811
0.487321
0.486336
0.485784
0.485156
0.485656
0.48604
0.486726
0.486968
0.48906
0.489642
0.490913
0.492116
0.49466
0.496546
0.497827
0.529978
0.443014
0.471369
0.450018
0.441856
0.433988
0.435505
0.43448
0.441111
0.454215
0.466547
0.478276
0.488675
0.497229
0.502183
0.500895
0.496671
0.495182
0.496394
0.497998
0.499909
0.498462
0.493965
0.494039
0.496253
0.499382
0.502481
0.50314
0.502424
0.498447
0.493973
0.490773
0.488353
0.48687
0.485363
0.484727
0.482142
0.480307
0.480446
0.480573
0.48031
0.481216
0.482307
0.483453
0.48424
0.486028
0.487263
0.48951
0.49263
0.49517
0.53
0.442622
0.475193
0.455763
0.443522
0.432139
0.433995
0.429127
0.434286
0.441711
0.455701
0.46976
0.480235
0.488047
0.491869
0.492018
0.488598
0.489543
0.491149
0.494185
0.495366
0.491199
0.490758
0.491769
0.493071
0.495563
0.499571
0.501177
0.498126
0.495668
0.49222
0.489803
0.488081
0.485706
0.483746
0.482618
0.480159
0.479297
0.478842
0.478542
0.478018
0.478889
0.479776
0.480771
0.481881
0.482519
0.482364
0.485942
0.488737
0.491389
0.53
0.436581
0.471265
0.45174
0.448602
0.439586
0.439872
0.431144
0.439631
0.445091
0.451688
0.45856
0.466488
0.474701
0.482551
0.484849
0.485597
0.485875
0.488014
0.48913
0.487035
0.488158
0.488524
0.489057
0.489895
0.490944
0.494561
0.494887
0.494991
0.493711
0.491757
0.48957
0.486308
0.482906
0.481946
0.481617
0.479054
0.478268
0.478431
0.47896
0.478895
0.478502
0.478184
0.478523
0.480137
0.480875
0.480234
0.479798
0.481597
0.485835
0.53
0.427661
0.46857
0.445821
0.450796
0.443391
0.444837
0.43993
0.436009
0.439716
0.445359
0.449509
0.456327
0.464777
0.473591
0.479531
0.484685
0.486202
0.484725
0.480331
0.48104
0.482168
0.483972
0.484201
0.482881
0.484215
0.486432
0.489734
0.493459
0.493631
0.49115
0.488775
0.483726
0.481196
0.482113
0.481522
0.47886
0.478432
0.478062
0.478611
0.478347
0.477924
0.477776
0.476008
0.474994
0.472698
0.470232
0.471416
0.475796
0.480931
0.529959
0.434307
0.472471
0.4409
0.450543
0.446834
0.450229
0.444211
0.443608
0.441864
0.442598
0.448564
0.454359
0.45776
0.466436
0.472534
0.476806
0.480253
0.479528
0.479867
0.481955
0.481177
0.478583
0.477735
0.474493
0.47673
0.482725
0.485731
0.4886
0.489215
0.485421
0.484664
0.483212
0.482557
0.482447
0.480138
0.479603
0.477819
0.477958
0.477275
0.47691
0.475584
0.473314
0.472269
0.470084
0.467516
0.466679
0.467482
0.470946
0.476123
0.529883
0.43791
0.47721
0.447885
0.447355
0.443972
0.450299
0.451367
0.451748
0.451032
0.450737
0.448591
0.4494
0.452215
0.459252
0.465528
0.474051
0.476623
0.477198
0.4776
0.476675
0.475369
0.474314
0.474402
0.471472
0.474031
0.474707
0.477281
0.47918
0.481029
0.481172
0.482074
0.48257
0.481926
0.481918
0.480282
0.478325
0.476378
0.473858
0.472234
0.471474
0.469407
0.465753
0.461694
0.460555
0.461095
0.462776
0.46409
0.4677
0.473329
0.529993
0.434895
0.474259
0.451779
0.44781
0.43967
0.443972
0.44656
0.447082
0.447274
0.44613
0.444765
0.44531
0.449569
0.457041
0.462817
0.467924
0.469123
0.469466
0.469591
0.469669
0.469587
0.467117
0.466046
0.46519
0.468679
0.472892
0.474944
0.477121
0.47997
0.47979
0.4808
0.480146
0.480082
0.479503
0.478195
0.473676
0.47122
0.469835
0.468715
0.467427
0.462193
0.455437
0.450894
0.449081
0.449237
0.451006
0.453961
0.460704
0.468481
0.53
0.429984
0.477582
0.447915
0.45037
0.445759
0.448581
0.4443
0.444693
0.443968
0.445606
0.446225
0.44761
0.449856
0.45412
0.455665
0.455504
0.454556
0.457475
0.45651
0.456246
0.456556
0.460431
0.462037
0.46498
0.469406
0.472851
0.475507
0.479365
0.48042
0.479661
0.479302
0.478578
0.477816
0.47536
0.471336
0.469278
0.468195
0.467594
0.466743
0.46244
0.453894
0.448137
0.442988
0.438137
0.435942
0.434655
0.434364
0.438276
0.451837
0.529997
0.426385
0.475737
0.443438
0.445175
0.444932
0.453003
0.454106
0.454337
0.456681
0.45758
0.45587
0.450751
0.448738
0.446935
0.445768
0.442093
0.443284
0.444914
0.448009
0.449573
0.450995
0.456138
0.45977
0.46353
0.466844
0.470192
0.47334
0.477541
0.477962
0.477134
0.476716
0.474901
0.473083
0.471902
0.469576
0.467533
0.467301
0.466465
0.463663
0.456701
0.448735
0.443635
0.437012
0.429189
0.41947
0.409535
0.399357
0.387243
0.389082
0.529559
0.460542
0.483431
0.465677
0.460277
0.456538
0.464243
0.467779
0.474842
0.483628
0.490463
0.495266
0.499207
0.502576
0.507851
0.51152
0.513488
0.514968
0.515721
0.516679
0.518155
0.519808
0.520987
0.518634
0.516032
0.514416
0.515596
0.51567
0.516081
0.516254
0.516227
0.514938
0.514412
0.512349
0.512332
0.51143
0.510418
0.509549
0.508541
0.508273
0.507902
0.507497
0.5086
0.508523
0.509408
0.508842
0.50907
0.509582
0.509994
0.510736
0.529585
0.461463
0.483716
0.465313
0.462347
0.457934
0.460503
0.464617
0.474816
0.484854
0.490927
0.494947
0.497674
0.501803
0.506372
0.509223
0.511063
0.512132
0.512939
0.51394
0.514558
0.517128
0.515588
0.510992
0.508164
0.508624
0.509612
0.510261
0.510213
0.510297
0.509556
0.506104
0.503322
0.501488
0.500513
0.499516
0.498022
0.497901
0.496707
0.49716
0.497573
0.498354
0.499251
0.499473
0.499929
0.500168
0.500658
0.501225
0.502165
0.502795
0.53
0.451162
0.481743
0.462669
0.454604
0.448207
0.45185
0.45679
0.467608
0.477272
0.485921
0.491757
0.496419
0.50032
0.502718
0.504053
0.503015
0.500639
0.501092
0.501741
0.504024
0.505292
0.501864
0.500729
0.502168
0.504367
0.506304
0.507176
0.507029
0.504721
0.499057
0.494438
0.491602
0.489235
0.488326
0.487202
0.486081
0.485531
0.48483
0.484525
0.485069
0.486907
0.4884
0.489245
0.49118
0.491339
0.490799
0.491304
0.494089
0.495929
0.529344
0.454789
0.479872
0.462156
0.458689
0.44996
0.448224
0.451185
0.457177
0.467112
0.477741
0.487522
0.495041
0.499349
0.50249
0.499417
0.497109
0.495507
0.495877
0.497095
0.498555
0.49449
0.492678
0.493922
0.495245
0.499374
0.503061
0.50533
0.503987
0.499257
0.494942
0.491497
0.488988
0.487678
0.486143
0.485239
0.483933
0.482017
0.4808
0.480254
0.480835
0.482153
0.483101
0.484525
0.485457
0.484697
0.483664
0.485018
0.488711
0.492215
0.53
0.457077
0.478849
0.464919
0.461712
0.454579
0.450509
0.448559
0.450939
0.459646
0.471058
0.481719
0.489509
0.495177
0.49624
0.494111
0.490602
0.490516
0.492907
0.49474
0.491657
0.488484
0.488004
0.488928
0.490139
0.492071
0.497354
0.500311
0.499497
0.496135
0.49404
0.490996
0.48901
0.486805
0.484131
0.483215
0.48243
0.479508
0.479194
0.479099
0.479022
0.479588
0.480177
0.481587
0.482044
0.481047
0.481284
0.481787
0.485481
0.489352
0.53
0.447709
0.478779
0.464316
0.461886
0.453288
0.453488
0.447385
0.450787
0.45542
0.463134
0.471189
0.479396
0.487018
0.491167
0.489989
0.488487
0.487776
0.487929
0.4853
0.482497
0.482848
0.48285
0.48365
0.482477
0.484696
0.490875
0.492802
0.494635
0.494729
0.493729
0.490947
0.487313
0.482922
0.481593
0.482168
0.480661
0.478776
0.478102
0.479533
0.479601
0.478734
0.47939
0.47976
0.480494
0.479998
0.4783
0.475846
0.478035
0.483965
0.529998
0.450334
0.483108
0.460151
0.464592
0.457816
0.458498
0.452503
0.44844
0.450406
0.454683
0.460062
0.467472
0.47678
0.481527
0.485993
0.487073
0.487405
0.48531
0.481393
0.478266
0.475973
0.476741
0.476976
0.47506
0.478716
0.483966
0.487476
0.491446
0.492914
0.490915
0.488243
0.483671
0.482316
0.482394
0.481189
0.47928
0.478777
0.477751
0.47814
0.478447
0.478619
0.478606
0.47799
0.475732
0.472186
0.46817
0.467206
0.469959
0.476218
0.53
0.45373
0.483793
0.458491
0.463125
0.460575
0.462369
0.456473
0.454165
0.451912
0.453261
0.45728
0.462827
0.466983
0.472018
0.478783
0.481474
0.483158
0.480598
0.478146
0.475649
0.473295
0.471591
0.470776
0.46897
0.472065
0.477159
0.481152
0.484502
0.485959
0.485036
0.48478
0.483156
0.482516
0.481406
0.479849
0.479036
0.479112
0.477678
0.476734
0.47632
0.474997
0.473756
0.472274
0.470403
0.466871
0.464202
0.464783
0.467656
0.47253
0.53
0.45354
0.487292
0.453913
0.45868
0.457856
0.461148
0.462185
0.460867
0.46141
0.460339
0.458508
0.4598
0.461795
0.467855
0.473652
0.477586
0.476187
0.471607
0.47088
0.470899
0.469809
0.467921
0.467
0.466303
0.468255
0.471366
0.47291
0.475118
0.4787
0.478963
0.480544
0.481573
0.482846
0.480201
0.478837
0.478018
0.475841
0.47322
0.471756
0.471552
0.469166
0.465532
0.461718
0.45931
0.459964
0.46155
0.464033
0.468162
0.472394
0.53
0.454277
0.487202
0.457007
0.458738
0.454098
0.459969
0.464213
0.463244
0.459974
0.459208
0.456207
0.455838
0.460117
0.466458
0.46746
0.467694
0.465663
0.465174
0.463524
0.463644
0.463923
0.462533
0.460779
0.461066
0.464369
0.467441
0.469538
0.473255
0.477005
0.477609
0.478693
0.479084
0.478284
0.476983
0.476176
0.471812
0.469511
0.46861
0.468376
0.466872
0.460726
0.454353
0.451461
0.448039
0.447707
0.450568
0.454592
0.461922
0.470394
0.529818
0.459049
0.487105
0.461896
0.464171
0.460172
0.463306
0.46271
0.461506
0.459556
0.45789
0.458274
0.460135
0.459234
0.46004
0.455848
0.452653
0.451755
0.452026
0.451775
0.450461
0.453548
0.457034
0.458674
0.461176
0.46387
0.466274
0.468849
0.47318
0.477175
0.476888
0.475877
0.474878
0.474981
0.471381
0.469035
0.467064
0.46581
0.465411
0.465621
0.460381
0.451684
0.4472
0.442734
0.437728
0.434441
0.432275
0.432273
0.436846
0.45383
0.53
0.454347
0.492392
0.45961
0.462673
0.461645
0.465095
0.467347
0.466069
0.46726
0.465948
0.459671
0.456033
0.453295
0.452055
0.446892
0.443194
0.442542
0.441882
0.443052
0.442926
0.445211
0.449431
0.45322
0.457136
0.460885
0.463323
0.466883
0.473058
0.4742
0.473317
0.472489
0.469878
0.468788
0.466784
0.465821
0.464097
0.46318
0.463156
0.461471
0.454116
0.447242
0.442519
0.437494
0.428584
0.419483
0.409919
0.399549
0.387449
0.392186
0.527945
0.451801
0.478753
0.464826
0.466495
0.465796
0.4684
0.473707
0.483295
0.489634
0.49656
0.500937
0.503142
0.508607
0.51183
0.513142
0.514143
0.513677
0.514446
0.514722
0.515517
0.517063
0.518663
0.516335
0.514203
0.512654
0.5131
0.514971
0.515357
0.516185
0.515301
0.514822
0.514401
0.513082
0.512473
0.512244
0.51116
0.509866
0.509186
0.508438
0.507595
0.507655
0.507739
0.507986
0.508588
0.508532
0.507085
0.50676
0.506668
0.507228
0.53
0.454435
0.477494
0.466832
0.466317
0.465554
0.468136
0.473584
0.482266
0.490648
0.496491
0.499306
0.502518
0.506236
0.508367
0.509064
0.509697
0.509512
0.508243
0.507815
0.508348
0.510708
0.510279
0.506052
0.503913
0.504128
0.505884
0.507718
0.508746
0.508965
0.508252
0.504834
0.502658
0.500667
0.499283
0.498483
0.498056
0.497344
0.496301
0.495932
0.496211
0.497397
0.498175
0.499118
0.498543
0.496931
0.49403
0.494097
0.495742
0.497416
0.53
0.460685
0.478191
0.465691
0.463145
0.46132
0.464503
0.469203
0.478446
0.486116
0.493323
0.498447
0.501143
0.503559
0.505268
0.50501
0.501789
0.499071
0.496075
0.495132
0.496289
0.497854
0.494719
0.494431
0.49532
0.498506
0.500961
0.502435
0.503786
0.502484
0.497291
0.493167
0.489548
0.487466
0.486675
0.486014
0.485788
0.48518
0.482313
0.482178
0.482821
0.484321
0.486305
0.4875
0.48806
0.486183
0.483698
0.485009
0.48678
0.489275
0.527977
0.45564
0.482672
0.46466
0.46513
0.458094
0.463714
0.465397
0.47602
0.48443
0.492066
0.499141
0.503695
0.506
0.506387
0.503373
0.499202
0.494431
0.492114
0.490858
0.490293
0.485836
0.484111
0.486625
0.487807
0.489763
0.494858
0.498746
0.498053
0.494908
0.492135
0.489325
0.486858
0.485002
0.48401
0.482394
0.480967
0.479143
0.478266
0.478093
0.479143
0.479905
0.481423
0.482391
0.481723
0.480262
0.479814
0.480358
0.483988
0.486729
0.53
0.449238
0.480202
0.464785
0.467788
0.46383
0.4664
0.4666
0.474626
0.482843
0.491255
0.498613
0.501951
0.50131
0.501633
0.49896
0.493848
0.491508
0.489339
0.486611
0.481521
0.478119
0.477514
0.478779
0.47913
0.482292
0.487319
0.490487
0.490092
0.489322
0.488481
0.487299
0.485182
0.482992
0.480383
0.478671
0.477536
0.476684
0.476384
0.477538
0.477214
0.477678
0.477888
0.478767
0.478057
0.477685
0.476836
0.477519
0.481355
0.484383
0.53
0.456307
0.479562
0.464712
0.470374
0.467344
0.469616
0.467908
0.470187
0.476953
0.483378
0.489246
0.49264
0.495477
0.496551
0.494174
0.489241
0.486917
0.484218
0.479446
0.474311
0.472534
0.472961
0.473409
0.47434
0.476068
0.479855
0.482271
0.485752
0.48595
0.486582
0.485258
0.481532
0.478242
0.477319
0.476242
0.475511
0.475717
0.475983
0.4766
0.476347
0.475782
0.475525
0.475884
0.475078
0.474724
0.47251
0.469937
0.471841
0.477469
0.529854
0.450339
0.480493
0.459554
0.466845
0.464142
0.471285
0.468096
0.465859
0.468575
0.472785
0.477841
0.481914
0.486603
0.487552
0.485018
0.484751
0.483767
0.482084
0.477278
0.472953
0.470073
0.469221
0.468718
0.466598
0.467656
0.470283
0.475034
0.480464
0.483086
0.481784
0.478878
0.475537
0.476056
0.475116
0.473651
0.473679
0.474175
0.4739
0.47326
0.473465
0.47221
0.472602
0.47174
0.468936
0.465626
0.462095
0.460793
0.462254
0.467773
0.529999
0.453962
0.483871
0.459145
0.463858
0.462679
0.466193
0.468385
0.47031
0.468408
0.470049
0.473839
0.476514
0.478098
0.479099
0.478806
0.477903
0.478212
0.473105
0.472308
0.469183
0.466397
0.46638
0.465809
0.463936
0.46254
0.463746
0.466502
0.46699
0.470982
0.471738
0.472897
0.470957
0.471191
0.470296
0.469276
0.469433
0.470402
0.471165
0.469863
0.468401
0.467691
0.465013
0.466265
0.462754
0.460832
0.458691
0.457855
0.459413
0.462861
0.53
0.447482
0.483704
0.45672
0.462331
0.46305
0.468064
0.4717
0.473095
0.473583
0.475031
0.474487
0.47204
0.472461
0.472577
0.474116
0.474173
0.4707
0.467567
0.467048
0.466578
0.465416
0.46359
0.461427
0.458444
0.457334
0.456608
0.455593
0.455565
0.458966
0.462475
0.462726
0.464257
0.465476
0.465554
0.464786
0.464264
0.464882
0.463595
0.462639
0.461679
0.458978
0.454895
0.450894
0.451422
0.453975
0.456136
0.457236
0.458645
0.460982
0.53
0.442722
0.4859
0.459701
0.468514
0.465121
0.470838
0.47587
0.478345
0.475022
0.473944
0.472191
0.470677
0.469932
0.47043
0.468735
0.467874
0.464488
0.463982
0.461719
0.46105
0.462256
0.46045
0.458858
0.456647
0.454643
0.450037
0.448253
0.450594
0.456478
0.460439
0.462486
0.461916
0.460938
0.46046
0.459986
0.457341
0.456093
0.456381
0.457359
0.455051
0.44726
0.441203
0.439932
0.440321
0.440274
0.444712
0.448888
0.453674
0.461942
0.53
0.444832
0.486886
0.466689
0.47294
0.469014
0.475823
0.479502
0.480023
0.477217
0.471636
0.46896
0.4656
0.463805
0.463594
0.459812
0.454972
0.453738
0.453243
0.451616
0.450032
0.452864
0.456783
0.455791
0.453421
0.450163
0.448867
0.449885
0.453341
0.456886
0.458996
0.460827
0.460399
0.458428
0.455896
0.45235
0.45152
0.450565
0.451668
0.451928
0.446447
0.437759
0.434263
0.430888
0.427472
0.425595
0.426333
0.424546
0.429117
0.446311
0.53
0.449055
0.489765
0.465214
0.472175
0.469956
0.478216
0.477552
0.476558
0.475931
0.47107
0.465549
0.461838
0.457879
0.455428
0.449804
0.445737
0.444715
0.442153
0.44088
0.441145
0.444182
0.447297
0.445214
0.444618
0.444938
0.446548
0.448982
0.452687
0.454653
0.45573
0.45744
0.456449
0.453653
0.452416
0.451433
0.450251
0.45018
0.449928
0.448485
0.438386
0.431683
0.429149
0.423937
0.418566
0.411438
0.40525
0.395778
0.382905
0.385876
0.53
0.445583
0.477029
0.466462
0.470489
0.472041
0.472372
0.479404
0.489522
0.498141
0.503549
0.505322
0.508694
0.51199
0.513609
0.514366
0.512127
0.510608
0.509295
0.509655
0.510836
0.512309
0.513099
0.511518
0.508494
0.507121
0.508649
0.51036
0.511628
0.512395
0.513516
0.513269
0.513339
0.512451
0.512035
0.511876
0.511119
0.510905
0.509806
0.507237
0.506771
0.505841
0.506408
0.506821
0.507072
0.504819
0.502152
0.502344
0.502592
0.50388
0.529451
0.460099
0.482592
0.471361
0.470769
0.470351
0.472871
0.479925
0.492067
0.497624
0.502406
0.505575
0.508796
0.510335
0.510783
0.510538
0.50773
0.504894
0.502616
0.500836
0.501801
0.503673
0.503355
0.500249
0.498278
0.499262
0.501159
0.503259
0.504665
0.505893
0.505505
0.502605
0.499961
0.497762
0.497031
0.495878
0.495842
0.494808
0.493287
0.491715
0.491591
0.494162
0.495809
0.496989
0.496354
0.492259
0.489144
0.48973
0.491206
0.493187
0.529489
0.454575
0.480987
0.467731
0.468205
0.471092
0.474683
0.481472
0.489908
0.495766
0.500542
0.502995
0.505619
0.506949
0.507039
0.506005
0.501176
0.494641
0.491016
0.49001
0.49028
0.491425
0.488345
0.48895
0.491153
0.493039
0.495133
0.496839
0.49864
0.498337
0.4944
0.490365
0.486904
0.484538
0.48366
0.482243
0.481936
0.480729
0.478705
0.478288
0.480345
0.481721
0.48402
0.485411
0.484727
0.4843
0.483183
0.483072
0.484936
0.487438
0.529687
0.452748
0.477045
0.466555
0.472143
0.469277
0.472123
0.479848
0.488787
0.494566
0.502283
0.506256
0.506893
0.507015
0.506398
0.50366
0.497023
0.491584
0.487743
0.487088
0.485225
0.479506
0.47816
0.479909
0.482957
0.485021
0.489357
0.493017
0.491979
0.488173
0.486195
0.485152
0.484294
0.482988
0.480944
0.479253
0.478583
0.476982
0.476547
0.476532
0.47608
0.476165
0.477175
0.478265
0.477109
0.477823
0.478837
0.478825
0.482098
0.484602
0.529882
0.453138
0.480057
0.465482
0.470658
0.470331
0.473244
0.479106
0.48588
0.49537
0.503102
0.505643
0.505443
0.505205
0.503577
0.499677
0.49208
0.486105
0.481994
0.481103
0.475571
0.471279
0.470648
0.471004
0.474675
0.47803
0.483076
0.48568
0.48391
0.482207
0.482042
0.481611
0.482572
0.48145
0.478523
0.477498
0.475977
0.475377
0.474354
0.473278
0.472088
0.471311
0.471847
0.472609
0.472572
0.47431
0.475616
0.475364
0.478001
0.480721
0.53
0.444831
0.483159
0.463883
0.470084
0.471048
0.481255
0.482556
0.485048
0.492999
0.498637
0.501068
0.499592
0.498553
0.495884
0.491189
0.487172
0.481951
0.478368
0.474216
0.469461
0.468522
0.466703
0.466187
0.467291
0.468087
0.472536
0.476108
0.477971
0.479229
0.48037
0.479231
0.475815
0.472682
0.472119
0.469631
0.469155
0.467586
0.46699
0.466002
0.466104
0.465284
0.46565
0.466723
0.466076
0.466277
0.466788
0.465341
0.465826
0.470028
0.53
0.443114
0.481969
0.462564
0.463003
0.465824
0.48077
0.48492
0.485687
0.489537
0.492314
0.49368
0.491956
0.489398
0.486099
0.482624
0.48042
0.479474
0.474981
0.469848
0.467122
0.465045
0.462945
0.458524
0.456678
0.457745
0.460718
0.464064
0.468719
0.470562
0.468479
0.463526
0.45887
0.459523
0.459846
0.45818
0.456589
0.456674
0.457413
0.457566
0.457211
0.458095
0.457436
0.456098
0.454873
0.452989
0.454638
0.45657
0.458875
0.462562
0.53
0.442965
0.479367
0.460821
0.465646
0.466006
0.474271
0.483014
0.487314
0.4882
0.490995
0.490461
0.486597
0.485621
0.480199
0.478106
0.477018
0.475984
0.470903
0.465467
0.46075
0.459099
0.457982
0.453911
0.450888
0.448788
0.44825
0.44621
0.447133
0.45024
0.452066
0.45257
0.449988
0.450871
0.449588
0.449233
0.447194
0.44866
0.45082
0.452065
0.452768
0.451533
0.450441
0.448525
0.44406
0.443074
0.444612
0.44928
0.452984
0.456783
0.53
0.447417
0.484282
0.461384
0.474567
0.471823
0.477549
0.482568
0.487819
0.487282
0.488151
0.484488
0.481848
0.479775
0.479705
0.476845
0.474929
0.46939
0.466007
0.463546
0.460862
0.457474
0.455497
0.450202
0.440903
0.437127
0.433547
0.431997
0.434637
0.438613
0.444086
0.444946
0.444268
0.44611
0.445601
0.443396
0.4419
0.442749
0.443013
0.443944
0.444963
0.442496
0.437201
0.434089
0.436684
0.439118
0.4421
0.446177
0.449846
0.453378
0.53
0.443862
0.485912
0.465132
0.479244
0.473941
0.476275
0.478209
0.484607
0.485305
0.483315
0.481975
0.479106
0.479447
0.477868
0.476225
0.471363
0.466785
0.464313
0.461507
0.458105
0.456358
0.45153
0.446535
0.437942
0.429999
0.427389
0.427429
0.430272
0.435307
0.437964
0.440207
0.442432
0.442826
0.440956
0.439239
0.438128
0.433522
0.434864
0.435629
0.435394
0.428482
0.425032
0.424405
0.424575
0.425202
0.429159
0.435772
0.44454
0.45439
0.53
0.442035
0.485962
0.470842
0.48091
0.474662
0.476314
0.47901
0.483632
0.485232
0.480913
0.474826
0.471679
0.473102
0.471427
0.468292
0.463911
0.458871
0.456253
0.454933
0.45187
0.450533
0.446177
0.441918
0.438153
0.43332
0.431787
0.431585
0.434011
0.437208
0.439202
0.44005
0.438544
0.439387
0.438501
0.434699
0.432676
0.430095
0.429972
0.429292
0.422339
0.416766
0.416155
0.414384
0.412554
0.410637
0.411606
0.412575
0.420014
0.437595
0.529996
0.445868
0.484878
0.469181
0.480907
0.476172
0.48241
0.479304
0.478543
0.481019
0.472809
0.468157
0.464598
0.464946
0.461441
0.456199
0.451848
0.449798
0.446511
0.443467
0.437922
0.435799
0.434213
0.432502
0.435094
0.438223
0.434928
0.434247
0.436467
0.440973
0.442024
0.439132
0.436411
0.434671
0.434212
0.433863
0.431926
0.430523
0.428569
0.421545
0.409697
0.408101
0.408994
0.407643
0.403738
0.399264
0.394773
0.389087
0.378552
0.380144
0.53
0.448443
0.480889
0.475744
0.472227
0.473979
0.480685
0.486338
0.495069
0.50434
0.509989
0.511997
0.513384
0.51496
0.515455
0.513306
0.511194
0.508829
0.508673
0.509212
0.509694
0.509699
0.509823
0.507195
0.503768
0.504847
0.50631
0.507659
0.509379
0.510652
0.510967
0.512407
0.51175
0.511419
0.510858
0.511126
0.510891
0.510268
0.507543
0.504481
0.504558
0.50458
0.505606
0.505143
0.504749
0.501216
0.499286
0.499327
0.499727
0.500706
0.527995
0.46674
0.48465
0.477406
0.476219
0.47897
0.48343
0.488
0.499714
0.506059
0.511226
0.513553
0.514959
0.515307
0.513812
0.509812
0.506288
0.504429
0.502572
0.500738
0.500606
0.501434
0.498838
0.494308
0.494021
0.495476
0.498148
0.501078
0.502976
0.504175
0.504002
0.501767
0.498711
0.496371
0.494571
0.493215
0.493265
0.492566
0.48974
0.488064
0.488367
0.490599
0.493612
0.495224
0.493217
0.490712
0.487455
0.48718
0.48855
0.490444
0.529472
0.456387
0.479059
0.47011
0.475565
0.479404
0.484582
0.489542
0.498938
0.50639
0.510321
0.512945
0.51291
0.511813
0.509571
0.505576
0.501095
0.493987
0.489717
0.487945
0.489046
0.488707
0.484315
0.484029
0.487218
0.488643
0.490973
0.49409
0.496328
0.495756
0.490994
0.488048
0.486494
0.48418
0.483022
0.481929
0.481363
0.481047
0.478243
0.477707
0.478498
0.478269
0.479715
0.480277
0.47924
0.479915
0.480292
0.480468
0.482374
0.484808
0.528968
0.444631
0.474202
0.462654
0.474562
0.47552
0.480381
0.486177
0.496382
0.505445
0.511466
0.512796
0.512267
0.511598
0.509052
0.503514
0.494881
0.489417
0.48557
0.483735
0.480477
0.474614
0.473264
0.47503
0.478568
0.481679
0.484652
0.488678
0.488562
0.485627
0.482963
0.481315
0.481575
0.481986
0.480462
0.478937
0.477844
0.477026
0.475817
0.47299
0.472821
0.472292
0.473218
0.472017
0.471164
0.473234
0.4757
0.47683
0.480264
0.482781
0.529047
0.443997
0.473649
0.457713
0.466043
0.466558
0.477747
0.484767
0.494793
0.504219
0.51048
0.511762
0.510676
0.508598
0.50632
0.497991
0.487917
0.482537
0.479802
0.47676
0.470377
0.46496
0.464698
0.466436
0.469226
0.473145
0.477487
0.478652
0.478576
0.4788
0.476862
0.474494
0.473767
0.472249
0.470108
0.467717
0.466246
0.464891
0.463062
0.462371
0.461575
0.460939
0.461918
0.460488
0.461779
0.465615
0.470797
0.472065
0.474859
0.476704
0.529837
0.443816
0.479851
0.454358
0.4602
0.464307
0.47785
0.487076
0.49212
0.500183
0.506401
0.506087
0.502451
0.499741
0.495951
0.489371
0.481762
0.476733
0.475303
0.471514
0.467431
0.461798
0.460056
0.460334
0.461504
0.463659
0.465132
0.466651
0.467475
0.467578
0.467133
0.460688
0.453865
0.452652
0.454096
0.452657
0.450916
0.449848
0.450589
0.452024
0.452997
0.452932
0.452733
0.451999
0.450734
0.451529
0.452485
0.452573
0.456323
0.460333
0.529955
0.441277
0.482675
0.460786
0.461156
0.463001
0.479524
0.487389
0.491675
0.496091
0.498373
0.496615
0.494048
0.490596
0.48839
0.484154
0.479875
0.474851
0.471037
0.466289
0.463896
0.459213
0.452743
0.451801
0.451354
0.448833
0.448273
0.450636
0.451597
0.452455
0.449584
0.444906
0.439826
0.439162
0.442686
0.442234
0.442192
0.443213
0.444916
0.446589
0.447882
0.448705
0.447216
0.444071
0.441857
0.438554
0.439528
0.440637
0.44344
0.447028
0.53
0.445181
0.48136
0.465641
0.470194
0.469128
0.477712
0.483939
0.492449
0.49542
0.496258
0.493682
0.491848
0.490047
0.487197
0.483491
0.479231
0.474853
0.468332
0.463469
0.460277
0.457057
0.451756
0.443934
0.440348
0.436963
0.43609
0.433568
0.433168
0.437061
0.438534
0.438583
0.435561
0.435758
0.437225
0.435543
0.434708
0.437182
0.439517
0.443045
0.444359
0.446117
0.443865
0.439364
0.432818
0.431753
0.431409
0.432193
0.432847
0.434961
0.529999
0.45047
0.487731
0.466964
0.475764
0.473525
0.47979
0.483037
0.491534
0.495255
0.494106
0.491455
0.489552
0.488903
0.487338
0.485908
0.480799
0.473867
0.465925
0.460555
0.459418
0.458191
0.449566
0.436665
0.428081
0.424217
0.424008
0.422999
0.423259
0.428195
0.43342
0.431244
0.431107
0.433302
0.433431
0.431544
0.430957
0.432163
0.433946
0.435324
0.437691
0.435995
0.431333
0.428702
0.428865
0.429633
0.43166
0.431958
0.430494
0.42907
0.529968
0.446255
0.491818
0.471958
0.478951
0.470824
0.475628
0.478339
0.486713
0.491906
0.492335
0.489362
0.488236
0.488547
0.486217
0.484219
0.480335
0.473811
0.467853
0.462504
0.457221
0.449623
0.440516
0.433515
0.4249
0.420055
0.419793
0.420268
0.421751
0.424587
0.428836
0.429059
0.42967
0.430799
0.429982
0.428548
0.42774
0.426909
0.424191
0.425319
0.425046
0.418746
0.415434
0.414624
0.416288
0.417522
0.420751
0.424028
0.429844
0.436418
0.529957
0.446599
0.487872
0.477139
0.481591
0.471952
0.473661
0.478437
0.486218
0.489455
0.492711
0.488821
0.486061
0.485688
0.482244
0.477308
0.474222
0.469276
0.463446
0.461329
0.451656
0.440824
0.434243
0.43323
0.430098
0.425037
0.424439
0.42396
0.424676
0.428515
0.432369
0.430124
0.427792
0.42724
0.427249
0.425845
0.422623
0.419888
0.418498
0.41588
0.407909
0.404569
0.403375
0.402133
0.402049
0.401199
0.403896
0.403382
0.407121
0.426616
0.529948
0.456581
0.488006
0.474981
0.480792
0.473823
0.478439
0.482221
0.484844
0.485835
0.483123
0.478522
0.47725
0.473901
0.470916
0.465793
0.460842
0.456434
0.450823
0.444807
0.435857
0.428624
0.426354
0.427004
0.430255
0.43054
0.428811
0.428264
0.430259
0.434283
0.433985
0.428537
0.424304
0.422859
0.423758
0.420743
0.417428
0.415812
0.411655
0.401599
0.395305
0.396091
0.395686
0.394358
0.392498
0.390532
0.389813
0.384704
0.375336
0.375763
0.529973
0.445925
0.480434
0.472339
0.473678
0.475683
0.478453
0.483771
0.493682
0.503453
0.507455
0.506572
0.508246
0.509408
0.50963
0.508504
0.507971
0.506804
0.506553
0.503977
0.504704
0.505723
0.505103
0.504118
0.501901
0.50224
0.504905
0.506037
0.507275
0.508928
0.510188
0.51192
0.512322
0.511492
0.510821
0.51045
0.509237
0.508635
0.507528
0.504869
0.503016
0.502914
0.503822
0.502982
0.499957
0.497343
0.496114
0.496782
0.498418
0.499246
0.528512
0.459788
0.481476
0.473564
0.475526
0.47801
0.486225
0.490359
0.50049
0.508074
0.510557
0.508944
0.510518
0.511521
0.51079
0.508674
0.505272
0.50287
0.502808
0.500837
0.498814
0.498702
0.495369
0.490878
0.491531
0.49365
0.495779
0.498231
0.499609
0.501745
0.503297
0.501663
0.498375
0.496
0.494229
0.493133
0.492881
0.492947
0.490101
0.488192
0.486561
0.488021
0.48978
0.489994
0.488644
0.487645
0.485879
0.486697
0.488602
0.490915
0.529596
0.44941
0.476153
0.464023
0.472505
0.476962
0.485908
0.493708
0.501551
0.508133
0.510819
0.510405
0.511347
0.5115
0.508873
0.506189
0.500116
0.494743
0.489294
0.486714
0.485151
0.485339
0.481374
0.481586
0.483022
0.486325
0.489173
0.491495
0.492129
0.491745
0.488661
0.486212
0.485085
0.48363
0.482296
0.481557
0.481758
0.481494
0.478575
0.476231
0.475121
0.474765
0.476297
0.475939
0.476126
0.478448
0.479723
0.481012
0.48337
0.485614
0.529984
0.442714
0.470554
0.457337
0.466397
0.471554
0.483549
0.49087
0.499595
0.506857
0.511473
0.511832
0.513526
0.511597
0.507217
0.504404
0.494479
0.488155
0.484562
0.48178
0.478915
0.472105
0.471144
0.472988
0.475243
0.478113
0.480799
0.484659
0.484148
0.478934
0.475592
0.47413
0.473947
0.474704
0.471927
0.470312
0.468384
0.467559
0.466495
0.463521
0.462177
0.460905
0.462146
0.461986
0.463826
0.468586
0.473415
0.47705
0.480069
0.482063
0.529991
0.44238
0.469443
0.450655
0.456387
0.462567
0.475116
0.485479
0.495167
0.504226
0.508774
0.51181
0.513088
0.512535
0.507854
0.499717
0.489502
0.484087
0.47855
0.475359
0.467316
0.461701
0.461613
0.463483
0.465683
0.468434
0.471427
0.471642
0.470227
0.468816
0.465547
0.460089
0.455552
0.455631
0.453268
0.452693
0.45287
0.451273
0.450936
0.450691
0.449225
0.449802
0.449783
0.449644
0.452014
0.454739
0.459298
0.462615
0.465448
0.467438
0.529897
0.442336
0.475326
0.449901
0.452041
0.453072
0.46776
0.478608
0.488718
0.496812
0.501532
0.502427
0.502905
0.503972
0.502
0.491176
0.481492
0.474985
0.470947
0.465286
0.460196
0.45647
0.454995
0.455876
0.456368
0.457234
0.455559
0.453758
0.452275
0.452641
0.450517
0.44592
0.440443
0.44021
0.442709
0.443886
0.444254
0.444665
0.445266
0.445299
0.44413
0.443879
0.444589