/*--------------------------------*- C++ -*----------------------------------*\
| =========                 |                                                 |
| \\      /  F ield         | OpenFOAM: The Open Source CFD Toolbox           |
|  \\    /   O peration     | Version:  2.3.x                                 |
|   \\  /    A nd           | Web:      www.OpenFOAM.org                      |
|    \\/     M anipulation  |                                                 |
\*---------------------------------------------------------------------------*/
FoamFile
{
    version     2.0;
    format      ascii;
    class       volScalarField;
    location    "13";
    object      T_p;
}
// * * * * * * * * * * * * * * * * * * * * * * * * * * * * * * * * * * * * * //

dimensions      [0 0 0 0 0 0 0];

internalField   nonuniform List<scalar> 
197820
(
3.79625e-06
0.00138712
0.000999354
5.32569e-05
6.93531e-05
0.000190446
0.00015876
5.91871e-05
8.28602e-05
8.09749e-05
7.13354e-05
7.80431e-05
7.95682e-05
0.000166165
0.000100778
9.417e-05
0.000135774
7.91422e-05
8.80597e-05
0.000109552
0.000131403
7.60987e-05
8.30446e-05
9.79222e-05
0.00018003
0.000228674
0.000223306
0.000204946
0.000203214
0.000229112
0.000494105
0.000931886
0.00122964
0.00945039
0.023311
0.0316498
0.0263071
0.0493826
0.0149079
0.0460248
0.00901155
0.00588513
0.000688614
0.000345345
0.00048238
0.000587008
0.000580003
0.000798047
0.00185381
0.00129315
2.5715e-05
0.00108254
0.000818132
9.93711e-05
8.42819e-05
6.22742e-05
2.61779e-05
4.17262e-05
7.6028e-05
3.88062e-05
4.00954e-05
0.000101909
8.24041e-05
5.34014e-05
0.000138631
0.000111076
6.22607e-05
5.18187e-05
6.87874e-05
8.13154e-05
9.80837e-05
7.88857e-05
5.03056e-05
8.68277e-05
7.90544e-05
0.000176381
0.000111902
0.000273067
0.000308954
0.000396136
0.000883273
0.00215464
0.00347045
0.00847485
0.056392
0.0812647
0.0455495
0.0432625
0.15028
0.0348567
0.159647
0.26176
0.000670006
0.000715976
0.000303739
1.15648e-18
0.00536992
0.00125403
0.00843926
0.00640316
9.72536e-06
0.00119876
0.000867149
8.13354e-05
0.000185424
8.8079e-05
2.21629e-05
3.553e-05
3.18977e-05
7.18808e-05
6.57748e-05
9.59537e-05
0.000134939
9.17667e-05
5.94432e-05
9.76413e-05
8.63904e-05
0.000131311
0.000125792
0.000106098
0.000167626
0.00010391
8.27598e-05
0.000118885
0.000251204
0.000197379
0.000244974
0.000626371
0.000803829
0.00117755
0.00214501
0.00216751
0.00505546
0.0174383
0.00916039
0.00538948
0.0013952
0.0023931
0.00274103
0.00470498
0.0057309
0.00909369
0.00144251
7.20953e-06
0
0
4.62593e-18
0
0
0
2.10891e-05
0.00159779
0.000934619
6.29864e-05
0.000134239
0.000138862
4.19872e-05
0.000105979
6.96141e-05
0.000124898
6.87871e-05
0.000161276
0.000186886
0.000100612
7.98221e-05
7.79673e-05
8.04681e-05
0.000148456
7.98289e-05
0.000139338
0.000144696
0.000179247
0.000203223
0.000251422
0.000275247
0.000423097
0.000388231
0.000484726
0.00106187
0.00104427
0.00178843
0.00230339
0.00608996
0.00377745
0.00537699
0.00526691
0.00272775
0.00198885
0.0011108
0.00482548
0.00543575
0.00606174
0.00488219
0.00222261
0
0
0
0
0
0
2.08384e-05
0.0020759
0.00112461
6.75332e-05
0.000108178
8.238e-05
2.69443e-05
6.81414e-05
7.29396e-05
6.00417e-05
6.39466e-05
8.54059e-05
0.00015186
8.80805e-05
0.000105678
9.5043e-05
0.000168384
0.000156108
0.000107041
0.000190775
0.000182588
0.000175094
0.000180891
0.000360388
0.000371834
0.000576963
0.000564769
0.000663494
0.00132296
0.00127873
0.00284616
0.0028336
0.00419481
0.00473576
0.0029044
0.00495295
0.00302934
0.00370247
0.00304603
0.00187895
0.00625001
0.00357485
0.00309888
0.0048699
0.00146177
0
0
0
1.85037e-17
7.40149e-17
2.55872e-05
0.0011679
0.000933466
6.41837e-05
0.000126145
0.000163031
2.99634e-05
2.64174e-05
4.53531e-05
5.82024e-05
8.41811e-05
0.000146627
0.000101859
9.29614e-05
7.08131e-05
8.51203e-05
0.000145064
0.000249478
0.000128348
0.000114042
8.88126e-05
0.00019216
0.000322014
0.000255962
0.000573212
0.000598071
0.000877816
0.000873029
0.00166639
0.00233521
0.00213619
0.00229875
0.00411806
0.00374515
0.00289012
0.00407597
0.00368444
0.00718273
0.00301585
0.00181025
0.00311459
0.00154397
0.00243048
0.0122923
0.0287716
0.163592
0
0.00115663
0
0
2.34802e-05
0.00172328
0.000431079
0.000196248
0.000362933
0.000363274
6.98487e-05
2.81197e-05
8.18316e-05
6.16523e-05
9.96139e-05
0.000114063
0.000150583
7.67156e-05
0.000156451
0.000109452
8.96554e-05
0.000254293
0.000307056
0.000275417
0.00021893
0.000305098
0.000261408
0.000311975
0.000456749
0.000665008
0.000919075
0.00124024
0.00205181
0.00274063
0.00171035
0.00183536
0.00330428
0.00284515
0.00484029
0.00292209
0.00486965
0.00929082
0.00582759
0.00160833
0.00390066
0.00407255
0.00351049
0.0121824
0.0102698
0.0155769
0
0
0
0.00481334
8.72978e-06
0.00134134
0.000691846
0.000259901
0.000246028
0.000317646
4.27114e-05
0.000159666
0.000159529
0.000164328
0.000106653
0.000141398
0.000198022
0.000246956
0.000221539
0.000162196
0.000157563
0.000132319
0.000275144
0.000216181
0.000258929
0.000319673
0.000463243
0.000577589
0.000756956
0.00107894
0.00162379
0.00230355
0.00197201
0.0035134
0.00242827
0.00293953
0.00481727
0.00316321
0.0040539
0.00444656
0.00735635
0.01018
0.00572609
0.00263236
0.00342506
0.00385666
0.00478488
0.0085969
0.00830536
0.16663
0
4.62593e-18
0.00851582
0
3.85637e-05
0.000878088
0.00107417
0.000293808
0.000268325
0.000287572
0.000107931
5.36984e-05
0.000109266
0.000168928
0.000165596
0.000132341
0.000131743
0.000219216
0.000210279
0.000258845
0.0001482
0.000358954
0.000332098
0.000337376
0.000274732
0.000424521
0.000429142
0.000696414
0.000726043
0.000871673
0.00128542
0.00172555
0.00135478
0.00234695
0.00300638
0.00297289
0.00308425
0.00321747
0.00339413
0.00513457
0.00829451
0.00915988
0.00469307
0.00510604
0.00327225
0.00472684
0.00255226
0.00297198
0.0479867
0
0
0
0
0
1.43948e-05
0.000915653
0.000697438
0.000325355
0.000178874
0.000453929
0.000186022
4.60505e-05
0.000107394
0.000259194
0.000263577
0.000230701
0.000323543
0.00018147
0.000118075
0.000129431
0.000252606
0.00044483
0.000389354
0.000434543
0.000457143
0.000574852
0.000416335
0.000649263
0.000644544
0.00102742
0.000925018
0.00165377
0.00231145
0.00255682
0.00348609
0.00335415
0.00356668
0.00484541
0.00351588
0.00638057
0.00820938
0.00934724
0.00961133
0.00315021
0.0017682
0.00448637
0.0301322
0.012843
0.0282319
0
0
0
0
0
6.14096e-05
0.000606964
0.000455209
0.000119711
0.000179366
0.00041418
0.000297088
0.000108022
0.00013406
0.000160408
0.000200027
0.000201133
0.000258164
0.000286367
0.000349177
0.000319705
0.000177494
0.000191577
0.000329161
0.000380832
0.00039156
0.000541931
0.000651963
0.000966795
0.00104019
0.000772722
0.000904278
0.00100222
0.00269415
0.00259401
0.00660246
0.00389324
0.00349347
0.00506038
0.00425189
0.00367352
0.0137314
0.00645461
0.00498197
0.00269415
0.00375794
0.00275508
0.0106849
0.022628
0.0182858
0
0
0
0
0
6.01147e-05
0.0005943
0.000224654
0.000353299
0.000296276
0.000469607
0.000527971
0.000344567
0.000281856
0.000179033
0.000161536
0.000107922
0.000405327
0.000245608
0.000338122
0.000351153
0.000342691
0.00038673
0.000583724
0.000615719
0.000976977
0.000974248
0.000746646
0.00104946
0.00125982
0.00122744
0.00126078
0.00216273
0.00225027
0.00412776
0.00491258
0.00423173
0.00436064
0.00503294
0.00627369
0.00814101
0.0161242
0.00633574
0.00256155
0.00220888
0.00162916
0.0276535
0.0227594
0.0768069
2.96059e-16
7.22801e-20
0
0
0
2.96059e-16
4.96611e-06
0.000913869
0.000598631
6.16466e-05
8.47405e-05
0.000252168
5.60949e-05
4.76289e-05
5.86387e-05
2.07201e-05
2.05231e-05
3.8456e-05
6.36426e-05
0.00013348
5.43902e-05
7.02557e-05
8.7297e-05
5.73753e-05
3.5984e-05
4.31026e-05
3.89976e-05
6.9305e-05
9.39654e-05
9.93169e-05
0.000103312
0.000142149
0.000171786
0.000191822
0.000248966
0.000345959
0.000754476
0.00104774
0.00163288
0.00972145
0.0176236
0.0180858
0.0440008
0.0401596
0.0404747
0.051235
0.103901
0.000313852
0.000457712
0.000868924
0.000628803
0.000537393
0.000585094
0.000580487
0.00070437
0.00104562
4.34989e-05
0.00112499
0.000857787
5.33054e-05
0.000113418
9.29907e-05
1.45004e-05
2.36677e-05
1.77114e-05
2.08198e-05
1.92031e-05
4.27411e-05
3.48188e-05
3.4886e-05
6.54839e-05
3.65233e-05
8.90559e-06
2.04979e-05
2.16218e-05
2.40839e-05
4.69994e-05
5.05168e-05
3.76221e-05
6.51093e-05
9.60209e-05
8.59924e-05
0.000135084
0.000167775
0.000421436
0.000493082
0.00145884
0.00209788
0.00557144
0.0162966
0.0612457
0.0774063
0.0141437
0.0304798
0.0799507
0.0197526
0.0255831
0.00181196
0.00035138
1.18424e-15
1.85037e-17
0
1.18424e-15
0.000184668
0.0173872
0.00108566
3.54192e-05
0.00127107
0.000945444
6.56568e-05
9.2367e-05
7.08783e-05
6.72762e-06
1.02577e-05
1.75181e-05
2.41135e-05
1.86994e-05
2.72633e-05
1.58597e-05
1.52477e-05
2.93159e-05
1.54369e-05
2.35746e-05
1.79148e-05
1.50272e-05
2.81706e-05
4.15476e-05
8.15773e-05
2.80284e-05
7.37672e-05
0.000141059
0.000199036
0.000246869
0.000422517
0.000819836
0.000887074
0.00143719
0.00172529
0.00395894
0.0189696
0.0125883
0.00348555
0.00106814
0.00142177
0.00110213
0.00756204
0.00419576
0.0199495
0.00121146
0.00202856
0
0
0
0
3.70074e-16
0
4.60391e-05
0.0012634
0.000835783
6.94027e-05
0.000113746
0.000119759
7.24995e-06
1.43493e-05
1.43691e-05
9.07547e-06
1.08394e-05
1.49916e-05
1.6048e-05
1.49142e-05
2.66386e-05
2.07959e-05
2.32256e-05
2.67888e-05
1.87932e-05
3.59312e-05
3.28562e-05
6.14254e-05
6.114e-05
0.000130516
0.000206034
0.000326378
0.000314861
0.000497631
0.000828477
0.00108632
0.00126534
0.0021333
0.00338801
0.00280201
0.00228559
0.00261849
0.00255413
0.00155238
0.0169218
0.00462671
0.0107139
0.0123857
0.00945626
0.0021927
1.18424e-15
0.219145
0
0
0
2.96059e-16
1.91912e-05
0.00192124
0.000764359
4.40413e-05
0.000118187
0.000148478
1.61152e-05
1.45249e-05
1.28558e-05
2.28064e-05
3.34012e-05
2.21308e-05
3.24412e-05
2.73103e-05
1.93955e-05
1.53315e-05
1.79006e-05
5.76778e-05
4.27917e-05
3.63753e-05
4.41449e-05
5.84437e-05
6.55993e-05
0.000106593
0.000217444
0.000316476
0.000406005
0.000345506
0.000810649
0.00174556
0.00138315
0.00134115
0.00138278
0.00144324
0.00129593
0.0027329
0.00233187
0.00254174
0.0313443
0.00838639
0.00571546
0.00837184
0.0263194
0.00418556
0.00446415
0.000655663
0
0
0
0
3.34013e-05
0.0014034
0.00130507
8.85105e-05
0.000218927
0.000166407
2.03653e-05
1.35315e-05
1.7077e-05
3.96769e-05
6.48756e-05
2.989e-05
2.67665e-05
2.24879e-05
3.5309e-05
3.32206e-05
1.81345e-05
7.19508e-05
3.76552e-05
3.03331e-05
3.2652e-05
3.38925e-05
0.000105576
0.000301562
0.000361925
0.000343165
0.000470409
0.000542163
0.00137836
0.00105397
0.00109332
0.00119508
0.00161851
0.00154804
0.00223703
0.00133881
0.00445478
0.0111261
0.0261351
0.00705723
0.0357981
0.000523116
0.000333727
0.0240959
0.00757367
0.000876628
0
0
0
0
9.63237e-06
0.0015793
0.00127627
0.000153812
0.000160194
0.000331607
4.14868e-05
2.77269e-05
3.78323e-05
3.53886e-05
3.23991e-05
3.46098e-05
2.39174e-05
3.15098e-05
3.14088e-05
2.3599e-05
2.92434e-05
3.57732e-05
4.82732e-05
3.68074e-05
8.94485e-05
0.000134891
0.000132558
0.0002123
0.000385733
0.000307213
0.000556964
0.000702774
0.000709444
0.000748645
0.00128823
0.00108751
0.00189816
0.000698302
0.00113688
0.000892694
0.00462337
0.0287923
0.00411403
0.0270678
0
0.000946536
0.0225368
0.0112123
0.0325057
0.00107469
0
0
0
0
5.52392e-06
0.00120201
0.000773313
0.000166147
0.000263215
0.000359704
7.10691e-05
5.29525e-05
4.61959e-05
4.22389e-05
4.24829e-05
2.70315e-05
1.8541e-05
1.43407e-05
2.81032e-05
4.16721e-05
1.95308e-05
3.27633e-05
9.35371e-05
8.83034e-05
0.000196333
0.000122542
0.00010822
0.000239665
0.000347084
0.000416175
0.000542648
0.000858872
0.00102646
0.00100088
0.000963712
0.00141622
0.00131922
0.000957443
0.00157152
0.00143543
0.00944857
0.0167308
0
0.000955944
1.18424e-15
0
0.00558342
0.0497927
0.0258813
0
0
0
0
0
3.02875e-05
0.00139405
0.000749999
0.000190686
0.000218224
0.000336587
7.85023e-05
6.54589e-05
6.24861e-05
5.84476e-05
3.54874e-05
4.21178e-05
2.50394e-05
3.4912e-05
3.98558e-05
5.15545e-05
4.5519e-05
0.000149996
0.00012225
0.000102586
0.000160113
6.54199e-05
0.00019384
0.000160212
0.000301305
0.000482334
0.000694397
0.000946882
0.0013646
0.00103653
0.00141328
0.00286775
0.00098488
0.00107014
0.00170977
0.00304904
0.00656945
0
0.00471288
0
0
0
0.00236084
0.0855445
0.206387
0
1.15648e-18
0
0
0
3.83961e-05
0.000960915
0.000709921
0.000310385
0.000242582
0.000500545
0.00015708
4.99658e-05
3.96189e-05
4.93616e-05
4.93387e-05
5.51095e-05
5.24934e-05
4.65684e-05
4.77661e-05
4.40482e-05
8.26542e-05
9.10841e-05
0.000156939
6.9386e-05
8.10815e-05
9.92519e-05
0.000242704
0.000373764
0.000296064
0.000447027
0.000659083
0.000552044
0.000880002
0.00179645
0.000961109
0.000958223
0.00135335
0.00237646
0.00228939
0.00544462
0.0269336
0.0160172
0.00687692
0.00777071
0.000529412
0
0.0121154
0.0170257
0
0.0505906
0
0
4.62593e-18
0
8.66176e-05
0.000832148
0.000231566
0.00020489
0.000193693
0.000524591
0.000257178
8.69239e-05
4.45749e-05
5.1929e-05
2.89994e-05
2.86441e-05
5.20479e-05
6.43843e-05
3.43412e-05
6.23974e-05
6.74693e-05
7.60478e-05
0.000111455
8.19862e-05
0.000128191
0.000102741
0.000313065
0.000332747
0.000448052
0.000353947
0.000681144
0.000742741
0.00110765
0.00162386
0.00145533
0.00125251
0.00118531
0.00229518
0.0043754
0.0149494
0.0554842
0.00271943
0.00405948
0
0
0.0700881
0.0133145
0.0150221
1.18886e-15
2.96059e-16
0
0
8.94953e-05
0
5.30275e-05
0.000552569
0.000173961
0.000278858
0.000279954
0.000350304
0.000524123
0.000215874
0.000145172
6.23429e-05
5.65678e-05
7.17075e-05
0.000113107
0.000104604
0.000171748
0.00014468
9.32755e-05
8.62665e-05
0.000105709
0.000163924
0.000140942
0.000140914
0.000337778
0.000362801
0.000341181
0.000759294
0.000958153
0.000651387
0.00151056
0.000832742
0.00128382
0.000868022
0.00148447
0.00181022
0.00505187
0.0137561
0.0474027
0.0106922
0.00129931
0
0
0.0103886
0.0627065
0.0543941
1.20737e-15
4.62593e-18
0
1.15648e-18
0
0
1.26495e-05
0.00100984
0.000572546
0.0001211
8.06113e-05
0.000165636
0.000105983
6.32769e-05
3.6407e-05
2.51197e-05
3.47522e-05
2.72295e-05
3.60942e-05
3.74941e-05
3.04418e-05
3.58535e-05
5.65663e-05
0.000129031
6.79543e-05
4.20655e-05
2.70183e-05
5.29228e-05
4.97436e-05
8.4055e-05
0.000104191
0.000150935
0.000273152
0.000173066
0.000297492
0.000490191
0.00102528
0.00184003
0.00558733
0.00864502
0.0106219
0.024856
0.054877
0.0345656
0.035749
0.0571352
0.0817527
0.000632353
0.000581516
0.000297639
0.000472388
0.000697811
0.000536965
0.000646091
0.000879295
0.00092477
1.27259e-05
0.00102785
0.000782828
4.40733e-05
0.000143823
7.21125e-05
2.95128e-05
9.84321e-06
1.07206e-05
2.17494e-05
1.74085e-05
1.62769e-05
1.80522e-05
1.19518e-05
1.60466e-05
1.21099e-05
2.14294e-05
1.25795e-05
1.90319e-05
2.39771e-05
3.3446e-05
2.54054e-05
2.24157e-05
3.66132e-05
8.4909e-05
0.000184846
0.000212467
0.000291508
0.000341921
0.000841798
0.000938464
0.00172808
0.00450239
0.0152457
0.0837016
0.0550761
0.0271272
0.0303966
0.0398015
0.0495596
0.00482315
0.106503
0
0
1.41802e-05
1.15648e-18
0
0.0279547
0.00107051
0.00128622
3.72972e-05
0.00131384
0.000539206
7.01932e-05
5.02972e-05
8.24221e-05
2.2797e-05
1.21255e-05
9.22769e-06
4.34359e-06
6.8105e-06
1.03264e-05
6.46304e-06
1.13463e-05
1.31998e-05
1.24851e-05
1.27185e-05
1.52364e-05
1.14704e-05
2.23665e-05
3.50679e-05
3.58906e-05
4.82026e-05
4.91005e-05
0.000103479
0.000214748
0.000248172
0.000564643
0.000622147
0.0010266
0.00113943
0.00251778
0.00599685
0.0176137
0.00980011
0.00408987
0.000850059
0.00124494
0.00410854
0
0.00199464
0.0050049
0.000569792
0.00327721
0
0
0
0
0
4.62593e-18
4.43128e-05
0.00106091
0.000570598
8.24359e-05
8.43733e-05
0.000112194
8.40443e-06
8.5631e-06
1.04583e-05
1.14283e-05
1.44164e-05
1.08004e-05
9.93083e-06
1.03439e-05
9.52916e-06
2.12171e-05
2.76232e-05
1.92991e-05
1.54939e-05
3.84517e-05
4.18344e-05
5.05175e-05
3.37283e-05
0.000100113
0.000122228
0.000230596
0.000293792
0.000681017
0.00074714
0.00103474
0.00137208
0.00251468
0.00197111
0.00218366
0.00277648
0.00179189
0.0031761
0.0291859
0.0044957
1.18424e-15
5.03301e-15
0
0.00049425
0.00529474
0.107679
0
7.40149e-17
0.00244646
0
0.00193829
3.14525e-05
0.00178824
0.000529486
8.735e-05
0.000144191
0.000110822
1.23997e-05
1.35501e-05
1.74697e-05
8.2129e-06
1.72365e-05
2.7263e-05
2.74545e-05
1.56568e-05
1.24681e-05
9.99324e-06
1.53489e-05
2.30568e-05
1.57131e-05
3.09413e-05
2.02576e-05
3.82888e-05
7.1139e-05
0.000162113
0.000174703
0.000184894
0.000443891
0.000652022
0.000937607
0.000800575
0.00139883
0.00100478
0.00130834
0.00155784
0.00139931
0.00176347
0.00164143
0.00482433
0
0
7.40149e-17
0
0
0.000330557
0.00970476
0.00205258
0
0
0
0
2.35694e-05
0.00186867
0.000669371
0.000147555
0.000178878
0.00017219
3.79188e-05
2.32113e-05
1.72052e-05
2.27345e-05
2.09036e-05
2.40484e-05
1.35734e-05
1.05041e-05
1.07802e-05
2.27616e-05
1.77169e-05
2.61377e-05
3.08348e-05
2.12853e-05
5.88944e-05
0.0001011
9.01969e-05
0.00032936
0.000201336
0.000419668
0.000463788
0.000638867
0.000772825
0.00125594
0.00128993
0.000930317
0.00103685
0.00142483
0.000914619
0.00108231
0.00213921
4.62593e-18
0
0
0
0
0
0.000209808
0.0284172
1.18424e-15
0
0
0
0
1.55878e-05
0.00183644
0.000731858
0.000200251
0.000124456
0.000158503
2.81456e-05
1.86017e-05
2.99562e-05
2.75774e-05
2.23048e-05
2.55065e-05
1.53198e-05
2.48425e-05
1.98735e-05
2.37287e-05
2.25894e-05
2.82223e-05
2.68149e-05
4.16845e-05
8.72404e-05
0.0001987
0.000163393
0.000346459
0.000310398
0.000219663
0.000494668
0.00060229
0.00125987
0.000702088
0.000965855
0.00122957
0.00116074
0.000962654
0.00076529
0.000926875
0.00450965
0.035521
7.40149e-17
0
0
1.18424e-15
0
1.18424e-15
1.18424e-15
0.00611705
0
0
0
0
2.34432e-05
0.00158915
0.000715472
0.000309668
0.000313373
0.00021785
4.05567e-05
2.88186e-05
5.17168e-05
1.64038e-05
2.39301e-05
1.71118e-05
1.24701e-05
2.97978e-05
1.63749e-05
2.0741e-05
2.0583e-05
3.45066e-05
3.85074e-05
5.80442e-05
0.000164456
0.00011653
0.00012502
0.000238721
0.000189013
0.000185068
0.000710601
0.000649915
0.00076166
0.000890971
0.00108165
0.0012901
0.0009823
0.00076693
0.000492645
0.000577246
0.00929093
0.0133031
1.18424e-15
0.000428794
1.18424e-15
0
0.000800611
1.85037e-17
0.00119729
0.00057255
0
0
0
0
4.06879e-05
0.00142252
0.000309264
0.000248447
0.000260029
0.000369247
7.36381e-05
4.75626e-05
3.06363e-05
1.47339e-05
1.52021e-05
1.54286e-05
1.959e-05
2.41403e-05
3.2643e-05
3.14331e-05
2.44418e-05
3.33698e-05
5.18643e-05
7.10574e-05
0.000119868
9.20737e-05
9.29547e-05
0.000135904
0.000168422
0.000275411
0.000471358
0.000534244
0.000569382
0.00100406
0.000773784
0.001391
0.000914268
0.000965578
0.00111057
0.00229205
0.0405369
0.00312373
0
0.00152772
0.00132015
0
0.000771294
0
0
0
0
1.85037e-17
0
0
3.51736e-05
0.000838086
0.000734865
0.000366683
0.000138002
0.000362653
0.000118588
5.46003e-05
2.38224e-05
2.21675e-05
1.85396e-05
2.05415e-05
2.12445e-05
3.77727e-05
3.61394e-05
3.4086e-05
3.46498e-05
4.94906e-05
5.18793e-05
5.25856e-05
5.43443e-05
0.000103927
0.000115691
0.000145186
0.000287799
0.000417598
0.00050874
0.00074072
0.000880661
0.00136346
0.000872519
0.00129482
0.00147085
0.00111858
0.00130097
0.00543864
0.0519387
0.000475057
0.000614624
0.000461103
0.000121387
0.0228887
0
0.0144371
0
0.0123443
0
0
0.000695101
1.85037e-17
1.99807e-05
0.000345288
0.000267298
0.000254949
0.000209543
0.000487644
0.000254008
0.000109972
5.47082e-05
5.21214e-05
4.15326e-05
3.02607e-05
5.72683e-05
5.37407e-05
5.6607e-05
4.46167e-05
2.23963e-05
2.23705e-05
2.42305e-05
6.49844e-05
9.28214e-05
0.000153438
0.000104044
0.00027595
0.000224988
0.000539426
0.000663181
0.000823145
0.000729257
0.000878403
0.000810161
0.00140076
0.00165126
0.00140227
0.00268408
0.00746609
0.0626284
0.00066456
0.000397645
0
0
0
1.4803e-16
2.96132e-16
0
0
0
0.00332828
0
0
1.69005e-05
0.000124465
0.000186508
0.000254976
0.000248907
0.000355098
0.000384547
0.000158263
0.000125194
7.06635e-05
0.000109187
5.51498e-05
7.21239e-05
8.89014e-05
4.0556e-05
2.84348e-05
3.33195e-05
4.70446e-05
3.23635e-05
0.000108948
0.000139748
0.000244242
0.000280908
0.000322793
0.000314844
0.000487878
0.000534355
0.00132986
0.000634292
0.00092807
0.000838089
0.00147447
0.00183145
0.00245278
0.00336994
0.00618193
0.053196
1.25825e-15
0
0
0
0.0234477
0
0.0461947
4.62593e-18
0
0.00679906
0
0
0
3.16638e-05
0.000751254
0.00104724
5.61219e-05
0.000143194
0.000175267
9.8588e-05
6.25832e-05
5.72987e-05
2.23781e-05
8.92197e-05
5.54679e-05
5.11631e-05
3.21533e-05
3.88431e-05
3.95601e-05
0.000119834
7.94611e-05
4.92423e-05
2.72757e-05
1.97684e-05
5.09394e-05
6.2853e-05
4.34203e-05
0.000111777
0.000248991
0.000269612
0.000457793
0.000531744
0.000636973
0.00069181
0.00133225
0.00294645
0.00963905
0.0138363
0.0296205
0.0168805
0.0745972
0.0243897
0.0578457
0.0649623
0.00406278
0.000403798
0.000422342
0.000614727
0.000586896
0.000954418
0.000619341
0.000936543
0.000875931
2.50654e-05
0.00118477
0.000266623
8.11831e-05
7.69914e-05
5.14531e-05
3.49793e-05
1.53458e-05
1.05679e-05
1.50847e-05
2.38196e-05
1.15565e-05
1.28342e-05
1.04811e-05
1.39492e-05
1.4677e-05
3.04893e-05
1.95802e-05
9.25938e-06
2.6201e-05
1.81527e-05
3.08588e-05
2.76657e-05
5.11002e-05
9.13552e-05
0.000221714
0.000386714
0.00041553
0.000520131
0.000816201
0.0014225
0.00312797
0.00544868
0.0175627
0.0306243
0.118813
0.0772425
0.0122092
0.0373507
0.0447379
0.0648141
0.106896
0.000174108
4.73695e-15
0.00164828
0
0.00713683
0.00358654
0.0209395
0.000426089
3.67199e-05
0.000926189
0.000354016
7.62665e-05
0.000127573
0.000141335
3.03493e-05
2.86088e-05
1.00002e-05
6.7661e-06
8.70449e-06
6.46737e-06
6.07865e-06
1.78125e-05
2.02274e-05
1.22275e-05
1.88556e-05
1.35325e-05
1.39784e-05
2.96393e-05
3.25313e-05
6.29646e-05
4.31956e-05
8.26504e-05
0.000143155
0.00031134
0.000574175
0.000900317
0.000452579
0.0011272
0.00148027
0.0022318
0.00379585
0.0117043
0.0121559
0.00447246
0.00140071
0.0018907
0.000529867
1.18424e-15
0
0.0016112
0.00891043
0.0061338
0.000513797
2.96059e-16
0
2.96059e-16
0
0
4.53968e-05
0.00111256
0.000466844
0.000113532
7.1082e-05
8.63824e-05
1.27817e-05
8.76148e-06
1.08681e-05
1.1622e-05
1.30063e-05
1.33116e-05
1.35539e-05
1.08857e-05
1.16534e-05
1.5322e-05
2.044e-05
3.27026e-05
2.07951e-05
2.42131e-05
3.51944e-05
4.89114e-05
6.59194e-05
0.000109977
0.000204845
0.000219779
0.000457021
0.000694816
0.000940222
0.00139665
0.00124463
0.00222202
0.00259838
0.00313665
0.00320412
0.00465457
0.00496159
0.00244114
0
0
0
0
0
0.00438213
0.0656215
0
2.96059e-16
0
0
2.96059e-16
3.71813e-05
0.00148199
0.000835852
0.000146309
0.000194644
5.86573e-05
2.01431e-05
1.01468e-05
9.89484e-06
9.78023e-06
1.53942e-05
6.59976e-06
1.08466e-05
1.47431e-05
2.22053e-05
1.64132e-05
1.70284e-05
1.39172e-05
1.43934e-05
1.86543e-05
2.82183e-05
0.000105878
0.000148543
0.000144034
0.000139203
0.000441295
0.000410231
0.00144765
0.000714099
0.00089667
0.00096455
0.00128441
0.00209777
0.00151912
0.00106971
0.00149457
0.00473173
0.000348583
0
0
0
0
0
1.15648e-18
0
0
0
0
0
0
2.66296e-05
0.00127485
0.000602295
9.15305e-05
0.000155606
0.000146066
4.27954e-05
2.598e-05
2.02412e-05
1.48164e-05
1.93291e-05
2.17771e-05
1.80746e-05
2.07393e-05
2.27987e-05
2.72304e-05
1.39679e-05
1.53285e-05
1.86626e-05
2.82341e-05
4.94274e-05
7.88328e-05
9.17406e-05
0.000242514
0.00026679
0.000474209
0.00056885
0.000674624
0.000797032
0.000640563
0.000718047
0.00181851
0.00131863
0.00102593
0.000993823
0.000674952
0.00395313
0
0
1.20274e-15
0
0
0
0.00132484
0.0047618
0
0
0
0
0
2.09714e-05
0.00192965
0.000394657
0.000143268
0.000155665
0.000125446
4.90051e-05
3.43257e-05
2.06633e-05
1.31873e-05
2.23276e-05
1.7246e-05
1.10268e-05
1.40876e-05
4.88231e-05
1.99788e-05
2.52027e-05
2.94481e-05
2.22982e-05
5.7282e-05
5.75886e-05
0.00012041
0.000151106
0.000353381
0.000309989
0.00032711
0.000386989
0.000563869
0.0010764
0.000728458
0.0012686
0.00145704
0.000884225
0.000928924
0.000443778
0.000570692
0.00276931
0.00211918
1.85037e-17
0
0.000169641
5.92119e-15
0
0.0073093
0.00960184
0.00201858
0.000746985
0
0
0
3.34019e-05
0.00158956
0.000493899
0.000176915
0.000177858
0.000133846
3.59364e-05
1.91234e-05
2.11883e-05
3.01215e-05
1.90357e-05
1.09717e-05
1.00412e-05
1.2511e-05
1.43639e-05
2.12198e-05
1.91216e-05
1.7767e-05
2.55086e-05
0.000102295
2.4441e-05
0.000144629
0.000288238
0.000181973
0.000262474
0.000401634
0.000479562
0.000643084
0.000602472
0.000853739
0.00119807
0.000832068
0.0013319
0.000947249
0.000698455
0.000411885
0.00296685
0.0012813
0.00195588
0.000569686
0
1.18539e-15
0
0
1.18424e-15
0.000282909
0
0
0
0
1.02608e-05
0.000710032
0.000387255
0.000251207
0.000206318
0.000222845
4.97795e-05
3.32469e-05
1.35481e-05
1.76967e-05
1.58183e-05
2.26885e-05
2.27154e-05
2.62848e-05
2.72462e-05
4.16156e-05
5.22905e-05
2.21807e-05
4.16004e-05
5.06129e-05
5.60068e-05
6.59799e-05
0.000139716
0.000169422
0.000233069
0.000371217
0.000389495
0.000841206
0.00059956
0.000390385
0.00127785
0.000948672
0.00113906
0.000991324
0.000898965
0.00170678
0.0270231
0.00350048
0.000542113
0.00182329
0.000527365
0
1.18424e-15
0
0
0
0.00510118
0
0
2.89121e-19
3.35541e-05
0.000537694
0.000324304
0.000179943
0.000134308
0.000309588
8.09551e-05
3.83105e-05
1.97591e-05
2.75839e-05
2.47718e-05
1.92235e-05
3.24135e-05
6.51411e-05
5.23953e-05
6.11882e-05
3.36461e-05
3.83598e-05
3.77994e-05
0.000100791
7.80222e-05
0.000136297
0.00011689
0.000195854
0.000302136
0.000309104
0.000601035
0.000480801
0.00106272
0.000821285
0.00106093
0.00102071
0.00106417
0.00136346
0.00109507
0.00406674
0.0148968
0.000318485
0.000755953
0
0
0
0
0
0
0
7.86408e-17
0
0
0
3.23716e-05
0.000166307
0.000116034
0.000276036
0.000125754
0.000341654
0.00013357
9.91005e-05
6.85752e-05
5.67976e-05
4.17487e-05
4.62733e-05
7.17616e-05
8.7814e-05
5.20751e-05
6.01516e-05
3.09634e-05
3.37685e-05
5.44542e-05
8.1451e-05
9.48489e-05
5.33213e-05
0.000194292
0.000322058
0.000413292
0.000441137
0.000468856
0.000738889
0.000734191
0.000588309
0.00079452
0.0016866
0.00109864
0.00113453
0.00159349
0.00429997
0.0427824
0.000373114
0
0
0
0
0
0.0123739
0
2.96078e-16
0
0
0
0
3.79326e-05
0.000131217
0.000132478
0.000369301
0.000140164
0.000343736
0.000204869
0.000113136
0.000113838
0.000149022
5.62716e-05
9.75933e-05
6.04209e-05
7.42358e-05
3.72641e-05
3.18474e-05
4.19646e-05
4.36388e-05
2.76043e-05
4.5117e-05
0.000128771
0.000202808
0.000222062
0.000367318
0.000447528
0.000392482
0.000617582
0.000741092
0.000882789
0.000951272
0.00143782
0.00150044
0.00135087
0.00104513
0.00141659
0.00519971
0.0295353
0
0
0
0
0
0
1.18424e-15
1.18424e-15
0.00206214
0.00607967
0
0
0
2.29566e-05
0.000696282
0.00066853
0.000102101
6.11999e-05
0.000117292
8.44721e-05
8.72271e-05
6.18892e-05
3.64465e-05
2.48976e-05
3.8691e-05
2.90496e-05
3.47434e-05
4.05825e-05
3.58886e-05
5.30076e-05
4.59651e-05
4.52666e-05
2.82305e-05
3.48241e-05
3.23096e-05
7.56363e-05
0.000105167
0.000131492
0.000147131
0.00029803
0.000507231
0.000495163
0.000365655
0.00112524
0.00182023
0.00397718
0.00703515
0.0168665
0.0214188
0.0254204
0.0524765
0.0449682
0.0424456
0.0367274
0.000635378
0.000646481
0.000417448
0.000653816
0.000655673
0.000605087
0.000963301
0.000991761
0.00137062
0.000106859
0.000561223
0.000319515
0.000137723
7.10298e-05
0.000210645
4.84233e-05
2.8981e-05
1.02239e-05
1.53387e-05
3.46192e-05
9.20014e-06
8.55225e-06
1.12486e-05
1.73829e-05
1.55297e-05
1.06509e-05
2.09335e-05
2.73479e-05
5.22111e-05
3.10387e-05
3.67564e-05
4.52264e-05
0.000106801
0.000107271
0.000198957
0.000280045
0.000329933
0.000530205
0.000974789
0.00082987
0.00139431
0.00494936
0.00994162
0.0448315
0.0481982
0.0516183
0.0378049
0.0570916
0.0743259
0.0970639
0.115653
0.279301
0.000143392
1.15648e-18
0.011422
0.000499923
0.000571797
0.000355878
0.000947437
0.000140455
0.000646187
0.000575158
0.000169485
9.62889e-05
7.89637e-05
2.96218e-05
2.37493e-05
1.36794e-05
1.66546e-05
3.05495e-05
1.40266e-05
3.10362e-05
2.97587e-05
2.56526e-05
1.26334e-05
1.80107e-05
2.19784e-05
1.58947e-05
2.45582e-05
3.77468e-05
7.55007e-05
7.59468e-05
8.61835e-05
0.000151906
0.000210931
0.000319378
0.000377294
0.000885297
0.000949891
0.00154229
0.0031591
0.00509118
0.012073
0.0192271
0.00280326
0.00338212
0.0018289
0.00118804
0
0.000595814
0.004617
0.00339131
0.140006
0.0011963
0
0
2.96059e-16
1.85037e-17
0
7.56534e-05
0.000822007
0.000841174
0.000111789
0.00014594
0.000171512
2.87033e-05
1.67195e-05
7.25169e-06
7.8661e-06
8.1513e-06
1.34429e-05
1.4057e-05
1.00163e-05
1.32996e-05
2.31067e-05
1.80817e-05
2.53589e-05
3.55447e-05
3.3005e-05
2.86964e-05
5.69803e-05
9.41595e-05
8.33144e-05
0.000122603
0.000276287
0.000527486
0.000370005
0.000424145
0.000834929
0.000943309
0.0019544
0.00566851
0.00480592
0.00544293
0.0052301
0.00575846
0.00225448
0
0.00171428
4.73695e-15
0
0.0128666
1.18886e-15
0.00235764
0
0
0
0
0
4.6575e-05
0.000880484
0.00104052
0.00017096
0.000174276
0.000149235
3.37473e-05
2.75516e-05
1.25061e-05
1.97888e-05
2.09616e-05
9.46049e-06
9.30917e-06
1.87486e-05
3.33425e-05
2.50892e-05
1.63687e-05
2.37366e-05
3.93568e-05
2.99306e-05
3.6623e-05
8.18049e-05
4.59224e-05
9.52022e-05
0.000216476
0.000453607
0.000488792
0.000604629
0.00102695
0.00141147
0.00205
0.00185576
0.00377424
0.00201785
0.00167591
0.00248973
0.0061521
0.00054897
0.000200583
0
1.18424e-15
1.18424e-15
1.25825e-15
0
0
0
0
0
0
1.85037e-17
6.25322e-05
0.00121877
0.000703616
0.000122633
0.000191356
0.000119137
4.34929e-05
2.33679e-05
2.76837e-05
1.36805e-05
9.44828e-06
1.57555e-05
2.31992e-05
1.43332e-05
1.38069e-05
1.79137e-05
1.20675e-05
2.05457e-05
3.35249e-05
5.01867e-05
5.21643e-05
7.91527e-05
0.00014986
0.000145015
0.000371245
0.000490497
0.000550584
0.000894435
0.00150018
0.000988472
0.000851318
0.00169563
0.00239214
0.00121893
0.000939996
0.00179448
0.00555555
0.00358884
0.000656408
0.000701265
0.00166112
2.36848e-15
3.70074e-16
7.40149e-17
0.00468946
0.00344126
1.18424e-15
0
0
0
4.4275e-05
0.00157268
0.000355917
0.000169187
0.000146244
0.0001676
5.25856e-05
2.46424e-05
2.27599e-05
1.84385e-05
1.12754e-05
2.13979e-05
3.34529e-05
2.56885e-05
1.47997e-05
1.48922e-05
2.21642e-05
2.58377e-05
3.58979e-05
7.04736e-05
5.22969e-05
8.91261e-05
9.37934e-05
0.000203751
0.000262917
0.000554338
0.000486344
0.00057069
0.000739441
0.00114271
0.0010203
0.00108099
0.00137899
0.00104924
0.000622616
0.00166381
0.00388419
0
0
0.00157934
0.00168685
0
0
0
0.147843
0
0