/*--------------------------------*- C++ -*----------------------------------*\
| =========                 |                                                 |
| \\      /  F ield         | OpenFOAM: The Open Source CFD Toolbox           |
|  \\    /   O peration     | Version:  2.3.x                                 |
|   \\  /    A nd           | Web:      www.OpenFOAM.org                      |
|    \\/     M anipulation  |                                                 |
\*---------------------------------------------------------------------------*/
FoamFile
{
    version     2.0;
    format      ascii;
    class       volVectorField;
    location    "13";
    object      Us;
}
// * * * * * * * * * * * * * * * * * * * * * * * * * * * * * * * * * * * * * //

dimensions      [0 1 -1 0 0 0 0];

internalField   nonuniform List<vector> 
197820
(
(-0.000266011 0.000570693 -0.000399728)
(-0.0100047 -0.000722373 -0.0406938)
(-0.00540247 0.00793813 -0.143314)
(0.0211939 -0.00162871 -0.0835273)
(0.0131804 -0.00257748 0.0293449)
(0.0073615 0.00307649 0.103027)
(0.00469284 0.00598992 0.112214)
(0.00296122 0.00472787 0.0961544)
(-0.0053343 -0.000887073 0.102391)
(-0.00050504 0.00185848 0.0995522)
(-0.00142992 0.00273666 0.098818)
(-0.00306243 0.00564275 0.0915055)
(-0.003382 -0.000383386 0.091224)
(-0.00176031 -0.000481789 0.0939261)
(-0.0030435 -0.00119871 0.0879233)
(0.000150214 0.006222 0.0813588)
(-0.00309151 0.000937598 0.0763371)
(-0.00126176 0.00367214 0.0716181)
(0.00115248 1.42663e-05 0.071153)
(-0.00242278 0.0035576 0.0724594)
(0.000150909 0.000694254 0.0717327)
(-0.0018352 0.0047705 0.0672867)
(-0.00377976 0.00605509 0.0717254)
(0.00204375 0.0037789 0.0774095)
(-0.00266924 0.00117228 0.0799795)
(-0.000806301 0.00405648 0.0708664)
(-0.00188438 0.00448133 0.076288)
(0.000771645 0.00490677 0.0769716)
(-0.00266277 0.00559283 0.0724653)
(-0.000217367 0.00499718 0.0677359)
(-0.00420472 0.0128069 0.05982)
(-0.0160964 0.033041 0.0157591)
(-0.0208919 0.0345012 -0.00186798)
(0.0129769 0.0633702 -0.115676)
(0.00407951 0.0777532 -0.476481)
(0.05168 -0.0152481 -0.756899)
(0.00835625 -0.0245684 -1.02502)
(0.0160987 -0.113222 -1.01315)
(0.0105367 -0.0655503 -1.21547)
(-0.0479734 -0.0878357 -1.13764)
(-0.00237525 -0.0263156 -1.17206)
(-0.0063198 -0.0400659 -1.1522)
(0.00863507 -0.0128666 -1.14063)
(0.00634445 -0.00507844 -1.09686)
(0.00834691 -0.0140206 -1.06784)
(0.00783677 -0.0193216 -1.01633)
(0.0224705 -0.018229 -0.959803)
(0.00743675 -0.0227859 -0.90904)
(0.0186621 -0.0304314 -0.843411)
(0.0243776 -0.0221222 -0.770005)
(-0.000176843 0.00264939 -0.00301217)
(-0.0362415 0.0229149 -0.0579044)
(-0.0160715 0.0134478 -0.147465)
(0.0332437 0.00492179 -0.0482139)
(0.0155705 0.0033861 0.0673954)
(0.00825561 0.0105016 0.12326)
(0.00235644 0.0159104 0.12765)
(0.00252077 0.00836327 0.119878)
(-0.00369134 0.00940864 0.112434)
(0.000350452 0.00854486 0.10412)
(-0.000363826 0.0044545 0.102893)
(-0.00204071 0.00889067 0.105989)
(0.00221011 0.00436976 0.100861)
(0.00314164 -0.00399093 0.0927798)
(0.0043182 -0.00202803 0.0931553)
(-0.00105168 0.00541194 0.086801)
(-0.00197299 0.00845797 0.0883917)
(-0.000257497 0.00633143 0.0861335)
(0.000730105 0.00689996 0.0867167)
(-0.000934263 0.00331679 0.0837532)
(-0.00161997 0.00569533 0.0823528)
(-0.00472255 0.00821005 0.0882787)
(0.00198869 0.0120305 0.0924786)
(0.0015963 0.00944938 0.090636)
(-0.00327903 -0.0025965 0.0901439)
(0.00071329 -0.0009498 0.0998082)
(-0.00201559 0.00815576 0.104702)
(-0.00477468 0.0134349 0.108145)
(-0.00256843 0.0246653 0.107985)
(0.000192605 0.014221 0.0999471)
(-0.000813355 0.0399894 0.0926765)
(-0.0215923 0.0636515 0.0911099)
(-0.038899 0.103365 0.0533324)
(-0.0144203 0.137755 -0.0405916)
(0.045553 0.034199 -0.135701)
(0.0249467 -0.309454 -0.124273)
(0.0424353 -0.365221 -0.0663054)
(-0.0307795 -0.594701 0.150572)
(-0.0848355 -0.557844 0.0499783)
(-0.0884889 -0.700807 0.377786)
(-0.0880001 -0.647099 0.146518)
(-0.0754206 -0.452701 -0.0326928)
(0.0176862 -0.018086 -1.14116)
(0.00503545 -0.0127029 -1.11675)
(0.00995291 -0.0350784 -1.06513)
(0.0244002 -0.0164014 -1.04811)
(0.0357287 -0.0651061 -0.884607)
(0.0235957 -0.0727243 -0.871885)
(0.0207431 -0.124129 -0.759622)
(0.0332439 -0.118426 -0.729191)
(-0.00156205 7.65614e-05 -0.000277645)
(-0.0139814 0.022588 -0.0321943)
(-0.0114383 0.0219228 -0.159373)
(0.0224631 0.0197064 -0.0459214)
(0.0181666 0.0345669 0.0445257)
(0.00531108 0.0226259 0.122643)
(0.00183085 0.0175334 0.128395)
(0.00243996 0.0102518 0.12369)
(-0.000515038 0.0156377 0.117238)
(-0.000300019 0.0116343 0.112693)
(-0.000825846 0.00956506 0.111578)
(-0.00209133 0.00614966 0.114313)
(-0.00206246 0.010146 0.111518)
(-0.0017183 0.00476161 0.106103)
(0.000123549 0.00641525 0.0962993)
(-0.00119299 0.00612151 0.0938882)
(0.000702987 0.0122386 0.0955119)
(0.000618382 0.00687905 0.0920014)
(-0.000764123 0.00197856 0.0973195)
(-0.000957884 0.00561626 0.094554)
(-0.0100621 0.00546955 0.103232)
(-0.00456998 0.00819581 0.097864)
(0.00136005 0.00643093 0.101953)
(-0.000173941 0.0138099 0.107032)
(-0.00321966 -0.00307833 0.108633)
(-0.00555491 0.00276403 0.116698)
(-0.0036422 0.00730062 0.118528)
(0.000335091 0.0198907 0.136675)
(-0.00733437 0.0293173 0.156486)
(-0.00961183 0.0241659 0.173562)
(-0.0209278 0.0393731 0.199794)
(-0.017996 0.0557917 0.216005)
(-0.0316373 0.121428 0.258908)
(-0.0125181 0.0103077 0.371854)
(0.00164065 -0.444545 0.407116)
(-0.00922786 -0.574319 0.313023)
(0.0179299 -0.650322 0.270216)
(-0.00524402 -0.686208 0.282248)
(-0.0226288 -0.755917 0.36892)
(-0.0344622 -0.767951 0.454489)
(-0.0822482 -0.819238 0.559325)
(-0.138892 -0.831137 0.632757)
(-0.198353 -0.849096 0.720777)
(-0.195415 -0.806239 0.826731)
(0 0 0)
(0 0 0)
(-0.0524216 -0.323867 -0.307516)
(0 0 0)
(0 0 0)
(0 0 0)
(-0.00196803 0.000453731 5.53462e-05)
(-0.0176926 0.0167165 -0.033783)
(-0.0138931 0.0650272 -0.163561)
(0.0235059 0.0464502 -0.0771052)
(0.0149178 0.0277101 0.0522825)
(0.00771258 0.0184595 0.123405)
(-0.000599541 0.0212305 0.136975)
(6.14294e-05 0.0175943 0.131438)
(-0.00145276 0.0206415 0.121167)
(-0.00586338 0.0204315 0.121438)
(-0.00301119 0.0160727 0.121916)
(-0.00370181 0.016519 0.120921)
(-3.28036e-07 0.0151487 0.114764)
(0.000978956 0.0125851 0.110508)
(-0.000551693 0.0160748 0.108991)
(-0.000489955 0.0150058 0.113503)
(0.00169575 0.0169806 0.115427)
(0.00238619 0.0075808 0.106698)
(-0.00375913 0.00975082 0.105921)
(0.000831027 0.0112371 0.107109)
(0.000838526 0.0019609 0.105072)
(-0.0054216 0.0040095 0.115162)
(-0.00201618 0.00790156 0.119847)
(-0.000428645 0.00916102 0.132819)
(0.00219152 0.00397513 0.141256)
(-0.0074173 0.0153224 0.163634)
(-0.0107075 0.0169341 0.17168)
(-0.00559222 0.00671581 0.182464)
(-0.0157224 0.0243162 0.218687)
(-0.0139711 0.0323139 0.253909)
(-0.0387062 0.0341327 0.288343)
(-0.013392 0.0367161 0.346839)
(-0.0118217 0.0429324 0.431693)
(-0.0317529 -0.0954496 0.582272)
(0.0104706 -0.351527 0.576406)
(0.000363338 -0.51786 0.492294)
(0.00339608 -0.633442 0.390939)
(0.00170573 -0.66021 0.334649)
(-0.00729108 -0.719797 0.401391)
(-0.0142168 -0.708543 0.466305)
(-0.0215916 -0.69671 0.492243)
(-0.0496973 -0.684412 0.587473)
(-0.0916972 -0.716872 0.684689)
(-0.170199 -0.757606 0.797633)
(0 0 0)
(0 0 0)
(0 0 0)
(0 0 0)
(0 0 0)
(0 0 0)
(-0.000151626 0.00307246 0.00136829)
(-0.0261556 0.0372513 -0.0501737)
(-0.0290309 0.0867606 -0.141622)
(0.0145936 0.0512926 -0.0740238)
(0.013396 0.00767136 0.0535457)
(0.00965711 0.0147267 0.12668)
(-2.20753e-05 0.0239366 0.136257)
(-0.00100661 0.0300872 0.136882)
(0.000195639 0.0262243 0.129028)
(0.00114824 0.0241787 0.12935)
(0.000654206 0.0244544 0.129641)
(-0.000627675 0.0212273 0.122474)
(0.00365477 0.0219713 0.124371)
(0.00252839 0.0205471 0.118214)
(-0.00208364 0.019623 0.119331)
(-0.00616028 0.0178823 0.124947)
(-0.00643981 0.0125234 0.128292)
(-0.00144814 0.0135586 0.11801)
(0.000617468 0.0119678 0.122893)
(0.000369803 0.00967029 0.123328)
(-0.00210308 0.0101888 0.13595)
(-0.00867162 0.00501889 0.1299)
(-0.00232635 0.00863211 0.145076)
(-0.00677867 0.00991035 0.152394)
(-0.00822956 0.00308901 0.160889)
(-0.00428271 0.0112601 0.168152)
(-0.0176043 0.03245 0.202922)
(-0.0205716 0.0133271 0.244628)
(-0.0206713 0.0045838 0.271372)
(-0.00142468 0.0338652 0.32157)
(-0.0274514 0.0184436 0.371657)
(-0.026378 0.0232941 0.456792)
(-0.0270174 -0.0537877 0.567621)
(-0.0390598 -0.136686 0.61358)
(0.012627 -0.301885 0.633938)
(-0.00618253 -0.448631 0.581505)
(-0.00187688 -0.580766 0.503788)
(-0.0164695 -0.677077 0.443885)
(-0.0118104 -0.679871 0.40707)
(-0.00438894 -0.651836 0.470664)
(-0.0277365 -0.656833 0.568149)
(-0.0186495 -0.616661 0.604611)
(-0.0412762 -0.621444 0.674988)
(-0.0684681 -0.622822 0.762139)
(-0.214753 -0.697304 0.894283)
(-0.269103 -0.7735 1.16627)
(0 0 0)
(0 0 0)
(-0.0977104 -0.159419 -0.28706)
(-0.00112742 -0.157715 -0.142044)
(0.000323077 0.00431606 3.55468e-05)
(-0.00701244 0.0608178 -0.0246628)
(-0.025403 0.099221 -0.142562)
(0.0251476 0.0504789 -0.051284)
(0.02763 0.0195972 0.0477229)
(0.0143639 0.0245375 0.130266)
(0.00166161 0.0274022 0.138414)
(-0.00103081 0.0317104 0.133305)
(0.00138271 0.0276345 0.130884)
(0.0029397 0.0264163 0.131915)
(-0.000979578 0.023612 0.127662)
(0.00107009 0.0206082 0.12568)
(-0.000839616 0.0189755 0.12848)
(-0.000431891 0.0267529 0.124172)
(-0.0026536 0.0187426 0.131805)
(-0.00047901 0.0220946 0.134635)
(-0.00556051 0.0153015 0.133852)
(-0.000732215 0.0167001 0.135521)
(-0.00774622 0.0129197 0.136597)
(-0.00258261 0.0138844 0.139926)
(-0.000540238 0.0097714 0.143845)
(-0.00443684 0.00200968 0.151134)
(-0.00263619 0.0115363 0.148875)
(-0.00551103 0.00342968 0.166877)
(0.00274195 0.00698058 0.176607)
(-0.0042233 0.0065296 0.204393)
(-0.00851424 0.00634464 0.256857)
(-0.0135562 0.0113567 0.301025)
(-0.0282784 -0.00526966 0.344716)
(-0.0462922 0.00625179 0.391179)
(-0.0333716 0.00157946 0.454221)
(-0.0411978 -0.00167296 0.53139)
(-0.00859443 -0.0714212 0.607441)
(-0.0121659 -0.140298 0.642283)
(-0.0019378 -0.228074 0.665724)
(0.0096995 -0.347799 0.64249)
(-0.00770975 -0.519203 0.6186)
(-0.0195006 -0.655265 0.473162)
(0.0108361 -0.663043 0.433204)
(-0.0150941 -0.6662 0.512737)
(-0.0033073 -0.627973 0.568674)
(0.00236535 -0.589567 0.63667)
(-0.00181196 -0.557205 0.692407)
(-0.0421656 -0.566588 0.744598)
(-0.146306 -0.630332 0.878725)
(-0.100701 -0.51916 0.334055)
(0 0 0)
(0.0320964 -0.289806 -0.204735)
(0 0 0)
(0.00125925 -0.238412 -0.187921)
(9.85227e-05 0.0031529 -0.00127505)
(-0.0241959 0.0677652 -0.013801)
(-0.0320155 0.104861 -0.164776)
(0.0305316 0.0831206 -0.0565952)
(0.0204453 0.0668507 0.0406123)
(0.0133354 0.040105 0.136679)
(0.00323025 0.0358094 0.143094)
(0.0010964 0.0346731 0.132959)
(0.00298715 0.0286532 0.130906)
(-0.00153816 0.0288532 0.131303)
(-0.000809124 0.0258455 0.130464)
(0.00165271 0.0274254 0.13374)
(0.00272525 0.0254914 0.131425)
(-0.00280012 0.0272009 0.134245)
(-0.00210257 0.0202553 0.135249)
(-0.000428325 0.0201287 0.141054)
(-0.00143019 0.0198327 0.147488)
(0.00103988 0.0186918 0.14964)
(0.000949169 0.0119188 0.151487)
(-0.00424555 0.00981139 0.148361)
(0.00379491 0.0132636 0.147238)
(0.00856915 0.00517132 0.152006)
(-0.0068136 0.00527986 0.167711)
(-0.000961525 0.000636403 0.183152)
(-0.00144908 -0.00263765 0.194826)
(-0.00933312 -0.00778175 0.23037)
(-0.00457065 0.00541877 0.275465)
(-0.00857204 5.26076e-05 0.320488)
(-0.0291321 0.00223127 0.365032)
(-0.0384023 -0.00385877 0.432995)
(-0.0220553 -0.0153886 0.511911)
(-0.0263915 -0.0329673 0.587615)
(-0.0203402 -0.0445535 0.648617)
(-0.0169392 -0.136265 0.68216)
(-0.0129785 -0.233806 0.70977)
(-0.0109145 -0.316143 0.702037)
(0.00768062 -0.481345 0.648625)
(0.0327922 -0.615425 0.540056)
(-0.029084 -0.675731 0.443931)
(-0.0318194 -0.648412 0.490957)
(-0.00141178 -0.624707 0.593168)
(-0.0119114 -0.573226 0.647695)
(-0.00547175 -0.501141 0.688622)
(-0.0196481 -0.478271 0.757479)
(-0.0680806 -0.462475 0.790537)
(-0.212767 -0.561057 1.15131)
(0 0 0)
(0 0 0)
(0 0 0)
(-0.0393706 -0.15261 -0.124076)
(-0.00114224 -0.00141457 -0.000772447)
(-0.0265446 0.0722292 -0.0206095)
(-0.039262 0.117165 -0.132854)
(0.0204927 0.133254 -0.0572693)
(0.0164461 0.11636 0.0465021)
(0.0123586 0.0720061 0.148048)
(0.00440718 0.050853 0.153416)
(6.57952e-05 0.0465276 0.144092)
(0.00410428 0.0298301 0.144849)
(0.00176312 0.0277275 0.129463)
(0.00418953 0.0310606 0.137739)
(0.0014404 0.0342288 0.145676)
(0.000912483 0.0278041 0.150281)
(-0.00416231 0.0324816 0.145698)
(-0.00621609 0.0214571 0.146751)
(0.00253282 0.0221739 0.151712)
(-0.00476249 0.0169932 0.155988)
(-0.00998014 0.0222401 0.16834)
(-0.00711916 0.0206063 0.167386)
(-0.00550981 0.0163426 0.157907)
(0.00484687 0.0123312 0.17243)
(-0.00416565 -0.00388981 0.173603)
(-0.0144957 0.00516395 0.19588)
(-0.0111361 0.00117384 0.212217)
(-0.00469597 -0.0166313 0.227138)
(-0.00613845 -0.00714967 0.258428)
(-0.0127392 -0.0208403 0.291478)
(-0.0127479 -0.0036378 0.348244)
(-0.0197184 0.00771856 0.394083)
(-0.0453156 -0.0172358 0.451187)
(-0.0293965 -0.0232027 0.5364)
(0.00232545 -0.034892 0.57663)
(-0.0133679 -0.0662993 0.629318)
(-0.0196063 -0.131794 0.707105)
(-0.0123793 -0.204112 0.734688)
(-0.0112002 -0.289956 0.762783)
(-0.00732396 -0.4614 0.708078)
(-0.0195693 -0.616288 0.484825)
(-0.0584934 -0.70198 0.467168)
(-0.0326848 -0.649182 0.535212)
(-0.0158902 -0.606682 0.598662)
(0.00296472 -0.537199 0.651965)
(-0.0101806 -0.476022 0.741929)
(-0.0554856 -0.423213 0.804267)
(-0.0722175 -0.337719 0.925131)
(-0.152802 -0.337544 0.374124)
(0 0 0)
(0.0540184 -0.164389 -0.288793)
(-0.00011214 -0.131528 -0.203167)
(0.00773855 0.038707 -0.35467)
(0.000496653 0.00145367 -0.00411489)
(-0.0194211 0.0746285 -0.0378862)
(-0.0196692 0.118513 -0.100253)
(0.00741558 0.169189 -0.0464671)
(0.0116523 0.156672 0.0532362)
(0.01453 0.114333 0.149549)
(0.0053609 0.0694715 0.160438)
(0.00284323 0.0456941 0.15424)
(0.00300009 0.0391727 0.142903)
(-0.00531621 0.0344948 0.142597)
(-0.00338505 0.0334567 0.145104)
(0.0011598 0.0356635 0.153117)
(-0.00396004 0.0321797 0.163006)
(-0.00309074 0.0263999 0.155795)
(-0.00666301 0.0249686 0.162065)
(-0.00434835 0.0282756 0.164159)
(-0.00195966 0.0170525 0.165688)
(0.00426808 0.0276744 0.168172)
(0.00641938 0.0217054 0.171666)
(-0.00198249 0.0168538 0.174179)
(-0.000748912 -0.0010302 0.186158)
(-0.00756141 0.00500828 0.199522)
(-0.00563219 -0.00513491 0.20508)
(-0.0104027 -0.00332429 0.224254)
(-0.00935431 -0.00867298 0.260118)
(-0.0260313 -0.0148375 0.301337)
(-0.0127412 -0.0340528 0.32064)
(-0.0135174 -0.0247935 0.391452)
(-0.00632178 -0.0193442 0.436725)
(-0.018788 -0.0537297 0.478474)
(-0.0344277 -0.0694943 0.542637)
(0.0104412 -0.0441877 0.600404)
(-0.0328786 -0.102436 0.670903)
(-0.0154443 -0.153302 0.726153)
(-0.000130841 -0.216977 0.763107)
(0.0226751 -0.295639 0.808569)
(0.0327939 -0.433642 0.762775)
(0.00137429 -0.578013 0.405203)
(-0.0223028 -0.634154 0.436343)
(-0.0181021 -0.584022 0.51181)
(-0.0131828 -0.545423 0.606992)
(-0.0442328 -0.521686 0.697305)
(-0.0399085 -0.396428 0.73631)
(-0.0434737 -0.304856 0.773621)
(-0.045075 -0.23179 0.496524)
(0 0 0)
(0 0 0)
(0.00752988 -0.12709 -0.33437)
(0 0 0)
(0 0 0)
(-0.000321596 0.00176907 -0.000817044)
(-0.0111234 0.0732374 -0.0470643)
(-0.0215964 0.114075 -0.0837517)
(0.00129143 0.20176 -0.0165191)
(0.00944958 0.209874 0.0467123)
(0.0100039 0.153934 0.134517)
(0.00309591 0.0866274 0.146361)
(0.000580893 0.0488117 0.147307)
(0.000665768 0.0463058 0.14699)
(-0.00519735 0.0376816 0.153558)
(-0.000799879 0.0316005 0.156616)
(0.0039335 0.037168 0.161726)
(-0.0030588 0.0290299 0.160778)
(0.00134409 0.0334787 0.172072)
(-0.00202753 0.0334318 0.170756)
(-0.00376834 0.0269324 0.175401)
(-0.00190241 0.0170485 0.176015)
(-0.00242381 0.0199428 0.17448)
(0.000658757 0.0198869 0.178896)
(-0.00407416 0.0160811 0.197808)
(8.97833e-05 0.005854 0.210335)
(-0.0160056 0.00366936 0.218746)
(-0.00251879 -0.00477269 0.23382)
(-0.0123025 -0.022353 0.256635)
(-0.0215337 -0.0148201 0.297147)
(-0.0143736 -0.02967 0.324099)
(0.00174359 -0.0398825 0.369342)
(-0.00460438 -0.0365122 0.411767)
(-0.0077898 -0.0130223 0.453984)
(0.00326097 -0.0503391 0.491162)
(-0.010732 -0.0398614 0.571401)
(0.00230535 -0.0639036 0.597637)
(-0.00625124 -0.107851 0.688342)
(0.00521272 -0.152292 0.741886)
(-0.01526 -0.21769 0.803746)
(0.0331055 -0.297715 0.830256)
(0.0562145 -0.436977 0.694374)
(-0.040813 -0.580828 0.442061)
(-0.0729286 -0.584158 0.462367)
(-0.0124293 -0.505091 0.491416)
(-0.0314211 -0.465641 0.614126)
(-0.0688435 -0.410499 0.695157)
(-0.0381193 -0.309278 0.656842)
(0.0122812 -0.18292 0.620298)
(-0.0960616 -0.099298 0.416787)
(0 0 0)
(0 0 0)
(0 0 0)
(0 0 0)
(0 0 0)
(0.00246921 -0.00427164 -0.00103528)
(-0.00919528 0.107199 -0.0451308)
(-0.00620783 0.121691 -0.0765464)
(-0.00463453 0.223094 0.00897619)
(-0.00303902 0.240732 0.0387585)
(0.00209312 0.185534 0.0988709)
(0.00179618 0.106071 0.118443)
(-0.00198076 0.0431808 0.134964)
(-0.0051392 0.0333581 0.152993)
(-0.00429361 0.0401728 0.169476)
(-0.00272043 0.0399152 0.166944)
(-0.00313899 0.0415297 0.168378)
(-0.00597255 0.0461905 0.170964)
(0.00204521 0.0406228 0.175359)
(-0.00462195 0.0372615 0.185797)
(0.00438615 0.033181 0.180874)
(-0.00431377 0.0219419 0.184673)
(-0.00303056 0.0236205 0.197767)
(-0.00569518 0.0152919 0.209934)
(-0.00787959 0.00870552 0.220372)
(0.00112496 0.00744029 0.226779)
(-0.00181432 0.00689498 0.228087)
(-0.00677587 -0.0130898 0.253264)
(-0.00643356 -0.0256107 0.279477)
(-0.010601 -0.0131835 0.314867)
(-0.0117065 -0.020032 0.340124)
(-0.011317 -0.021401 0.390281)
(0.00684559 -0.055955 0.412805)
(-0.0119741 -0.0348214 0.465176)
(-0.010775 -0.0665893 0.527201)
(-0.00483529 -0.0632329 0.581975)
(-0.0300609 -0.0840189 0.649088)
(-0.0272023 -0.134327 0.717881)
(-0.0068101 -0.165605 0.757165)
(0.0149278 -0.223351 0.765825)
(0.00254007 -0.337767 0.810949)
(0.0392353 -0.489461 0.674476)
(-0.0595136 -0.550616 0.397162)
(-0.0504481 -0.475627 0.436228)
(-0.0626349 -0.437073 0.500807)
(-0.036126 -0.385864 0.607043)
(-0.011446 -0.282374 0.633694)
(0.0301331 -0.149453 0.489388)
(0.0594014 -0.108074 0.371306)
(0.0469704 -0.0276622 0.225283)
(0 0 0)
(0 0 0)
(0 0 0)
(-0.0379045 -0.0187044 -0.336082)
(0 0 0)
(0.00120998 -0.00556399 -0.00146975)
(0.000950456 0.124502 -0.0363815)
(-0.00876207 0.135938 -0.043284)
(-0.00571856 0.220176 0.0348893)
(-0.00572942 0.22014 0.0631218)
(-0.00471597 0.186399 0.0766146)
(-0.0117128 0.112956 0.0900823)
(-0.00030918 0.0419965 0.119385)
(-0.000684448 0.0138746 0.154197)
(0.00250281 0.0390378 0.177084)
(-0.00525705 0.0446782 0.182644)
(-0.00229852 0.0535473 0.186869)
(0.0062222 0.0430005 0.189314)
(-7.95395e-05 0.0378285 0.183965)
(-0.011696 0.0352688 0.191741)
(0.00525622 0.0393174 0.197801)
(-0.0021829 0.0233757 0.202675)
(-0.00476564 0.0258347 0.210039)
(-0.00405087 0.0135764 0.218019)
(0.00324702 0.00467238 0.236056)
(-0.00505577 0.0118317 0.234339)
(-0.00887282 -0.00848944 0.261659)
(0.0105269 -0.0242122 0.275374)
(-0.0156372 -0.0169809 0.286691)
(-0.0131786 -0.00509401 0.316164)
(-0.00983172 -0.0156483 0.359239)
(-0.00567841 -0.0198815 0.441349)
(0.00299388 -0.0285432 0.44188)
(-0.00430961 -0.0480523 0.494504)
(-0.00891303 -0.0589126 0.527105)
(-0.0114426 -0.0878687 0.621251)
(-0.0194503 -0.11493 0.691091)
(-0.00326566 -0.148641 0.708524)
(-0.00282023 -0.17996 0.759587)
(-0.000546788 -0.246203 0.796965)
(0.0107375 -0.337752 0.816543)
(-0.030326 -0.437 0.678531)
(-0.0718244 -0.455822 0.38886)
(-0.0437553 -0.394682 0.431781)
(-0.0193626 -0.322583 0.496751)
(0.0155382 -0.258834 0.58961)
(0.0441851 -0.151914 0.263453)
(0.0261079 -0.0317163 0.156101)
(-0.0179877 0.0207369 0.026701)
(-0.189168 0.215787 0.462367)
(-0.00647858 0.0724564 -0.693235)
(0 0 0)
(0 0 0)
(0 0 0)
(0.00771327 -0.0823832 -0.338203)
(-0.000550574 0.000152616 0.000156164)
(-0.00488159 -0.00523255 -0.0487793)
(-0.00812057 -0.00548928 -0.103254)
(0.0213463 0.00267717 -0.0909895)
(0.00880925 -0.00217032 0.0246216)
(-0.00213561 0.00290965 0.107047)
(0.00212469 0.00750709 0.113609)
(0.00329061 0.00512057 0.115636)
(-0.00901941 0.0035156 0.112147)
(-0.00562855 0.00115169 0.110105)
(-0.004142 0.00104226 0.107591)
(-0.0048881 0.00283196 0.104865)
(-0.00901416 0.000924997 0.101764)
(-0.009491 -0.00412437 0.0974767)
(-0.00179251 -0.00115693 0.0944282)
(-0.00203334 0.000224161 0.0960904)
(-0.00633433 0.00356695 0.0941396)
(-0.00317476 0.00169372 0.0839058)
(0.000781666 0.00138611 0.0799635)
(-0.00205783 0.000852261 0.0795558)
(-0.00038095 0.00227696 0.0801325)
(-0.00573537 0.00629509 0.0862344)
(-0.00716821 0.00522503 0.0843142)
(2.1324e-05 0.00148103 0.0859429)
(-0.00937528 0.0030439 0.0885124)
(-0.0103193 0.00224483 0.0921962)
(-0.00126929 0.003674 0.0926602)
(-0.0089497 0.00673316 0.0976411)
(-0.0128078 0.0126448 0.0874848)
(-0.0121739 0.0116745 0.0960567)
(-0.0106225 0.0197477 0.0764621)
(-0.0374591 0.0454675 0.0527723)
(-0.0391656 0.040999 -0.00310719)
(0.0245408 0.0947585 -0.182823)
(0.0754983 0.0784024 -0.400314)
(0.0428688 0.0360238 -0.784688)
(0.0325239 -0.0852085 -1.00978)
(-0.063103 -0.118189 -0.962129)
(-0.0726458 -0.107847 -0.96569)
(-0.0292075 -0.0978143 -0.821155)
(0.0244052 -0.176085 -0.954557)
(0.0418321 -0.0246413 -1.1846)
(0.0442042 -0.0179489 -1.14487)
(0.0487925 -0.0265762 -1.10026)
(0.0361781 -0.0172875 -1.05501)
(0.0446529 -0.0323337 -1.01466)
(0.0503817 -0.0246934 -0.956079)
(0.0477359 -0.0264619 -0.906808)
(0.0468527 -0.0282539 -0.845256)
(0.0589923 -0.0377564 -0.790848)
(0.00253319 0.000876168 -0.000307778)
(-0.0177123 0.0179601 -0.0522124)
(-0.0161374 0.00297544 -0.115354)
(0.0284624 0.00986362 -0.0707473)
(0.0260928 0.0067051 0.0316334)
(0.00770055 0.0151685 0.118273)
(0.00250686 0.018015 0.124039)
(-2.31413e-05 0.0127825 0.120721)
(-0.00470695 0.0118356 0.119912)
(-0.00348852 0.00570553 0.117513)
(-0.00173211 0.0056638 0.112973)
(0.000109388 0.0069893 0.112488)
(-0.00260441 0.00582335 0.109659)
(-0.00228573 0.00221143 0.106055)
(-0.00425267 0.000987848 0.106117)
(-0.00167183 0.00857408 0.101848)
(-0.00180887 0.00502538 0.102654)
(-0.00236453 0.00793152 0.0983347)
(-0.00190692 0.00517776 0.096253)
(-0.000517712 0.00653314 0.0978348)
(-0.00762318 0.00579706 0.10109)
(-0.00762403 0.00414688 0.0998481)
(-0.00627102 0.00488055 0.104227)
(-0.00411179 0.00395186 0.111371)
(-0.00524348 0.00608369 0.116233)
(-0.00503626 0.0144328 0.120882)
(-0.00602821 0.013558 0.120708)
(-0.0172359 0.0179596 0.118686)
(-0.0187276 0.0326549 0.131918)
(-0.0256272 0.0244392 0.144574)
(-0.0356204 0.0676756 0.142451)
(-0.0400314 0.0823644 0.115821)
(-0.0620108 0.112526 0.0909146)
(-0.0345404 0.213853 -0.0409133)
(0.108234 0.0932478 -0.152759)
(0.0612363 -0.349347 -0.0479026)
(0.0311993 -0.606704 0.193854)
(-0.0562808 -0.548091 0.233346)
(-0.089132 -0.472426 0.190939)
(-0.115693 -0.697398 0.451957)
(-0.124521 -0.802232 0.560404)
(-0.154336 -0.927335 0.604556)
(0.03935 -0.0317019 -1.10087)
(-0.0308914 -0.0812439 -0.853671)
(0.106372 -0.0405044 -0.937256)
(0.0686013 -0.0354351 -1.01059)
(0.0270817 -0.0256587 -0.834964)
(0.0608651 -0.0407401 -0.937816)
(0.036264 -0.111624 -0.714945)
(0.0524225 -0.103624 -0.767176)
(-0.00118692 0.00443094 -0.000401409)
(-0.0128659 0.0136752 -0.0490401)
(-0.0193692 0.0298597 -0.135845)
(0.0247392 0.0236141 -0.0696031)
(0.0301325 0.0321185 0.042563)
(0.0108295 0.0209995 0.117954)
(0.00250414 0.0220019 0.12555)
(-0.00112392 0.0200686 0.124993)
(-0.00329845 0.0173802 0.126764)
(-0.0080219 0.0139707 0.124863)
(-0.00582256 0.013392 0.124837)
(-0.00612398 0.0147796 0.121176)
(-0.00418396 0.0128214 0.118976)
(-0.00193648 0.00850469 0.11751)
(-0.00380746 0.0110391 0.115071)
(-0.0063771 0.0128094 0.113802)
(-0.000462066 0.0114702 0.112454)
(-0.00197243 0.0122246 0.110791)
(-0.00249205 0.0101219 0.111609)
(-0.00355123 0.00926641 0.109128)
(-0.00803163 0.00491402 0.109662)
(-0.0091069 0.0044818 0.110503)
(-0.00633773 0.00785139 0.119127)
(-0.00546298 0.00896007 0.129153)
(-0.00950768 0.0113027 0.141082)
(-0.00883593 0.0164344 0.147058)
(-0.0166559 0.0177658 0.160986)
(-0.024646 0.0226642 0.169081)
(-0.0234704 0.0340347 0.205163)
(-0.0425008 0.0260927 0.244703)
(-0.0466813 0.0669045 0.274136)
(-0.0432025 0.0869591 0.300207)
(-0.0500271 0.108287 0.359916)
(-0.0515496 0.0671986 0.550986)
(0.0574122 -0.389162 0.519983)
(0.0391218 -0.588139 0.395386)
(0.0152194 -0.651211 0.348797)
(-0.0163781 -0.7332 0.406937)
(-0.054409 -0.81136 0.497402)
(-0.0475237 -0.90105 0.619911)
(-0.0373657 -0.94741 0.719734)
(-0.133917 -0.870366 0.675387)
(-0.1612 -0.8409 0.783539)
(-0.189128 -0.850114 0.814583)
(0 0 0)
(0 0 0)
(0 0 0)
(0 0 0)
(-0.0776734 -0.240992 -0.311926)
(0.0963235 -0.323522 -0.269342)
(-0.0027729 0.000561561 0.00173778)
(-0.00211906 0.0261624 -0.0559277)
(-0.0144488 0.0559853 -0.140538)
(0.0213241 0.0365539 -0.0830365)
(0.0186929 0.0258272 0.044808)
(0.00791802 0.0246749 0.120434)
(-0.00245407 0.0260815 0.130382)
(-0.00634487 0.0238106 0.129606)
(-0.00596682 0.0191273 0.130829)
(-0.0078939 0.0211294 0.131411)
(-0.00931567 0.0177257 0.131406)
(-0.0075311 0.0163948 0.128335)
(-0.00197649 0.0168312 0.126519)
(-0.00067009 0.0125893 0.124497)
(-0.00576481 0.01677 0.123404)
(-0.0052232 0.0201908 0.124269)
(-0.000215835 0.0194181 0.123395)
(-0.0026245 0.0157141 0.121968)
(-0.00628643 0.0134997 0.120189)
(-0.0029219 0.013266 0.125782)
(-0.0058164 0.00719617 0.129688)
(-0.00943937 0.0082644 0.135738)
(-0.00838879 0.016465 0.138499)
(-0.00584642 0.0107093 0.152349)
(-0.00898088 0.00660724 0.174906)
(-0.0166606 0.0128743 0.192917)
(-0.0334548 0.0293835 0.206452)
(-0.0316445 0.0248303 0.230812)
(-0.0546794 0.0397764 0.274141)
(-0.0851911 0.0379417 0.32443)
(-0.0744165 0.0418776 0.345381)
(-0.0724768 0.062221 0.428545)
(-0.0508685 0.0351933 0.531186)
(-0.0418918 -0.115436 0.634735)
(-0.00805226 -0.354339 0.659072)
(0.00647079 -0.504647 0.574312)
(0.0106265 -0.619369 0.50189)
(-0.018646 -0.715183 0.456507)
(-0.0657379 -0.860211 0.606243)
(-0.0222604 -0.93201 0.634866)
(0.061973 -0.881418 0.718704)
(-0.0491654 -0.855796 0.782783)
(-0.079001 -0.859319 0.878065)
(-0.158756 -0.821721 0.846098)
(-0.146921 -0.777954 0.9279)
(-0.0735423 -0.50503 0.299614)
(0 0 0)
(0 0 0)
(0 0 0)
(0.0142411 -0.213559 -0.310203)
(-0.00226792 0.00359819 0.00146112)
(-0.0167043 0.0611066 -0.0650863)
(-0.00778967 0.0735749 -0.135332)
(0.0111105 0.0492209 -0.0675905)
(0.023662 0.0208272 0.0326719)
(0.0110807 0.0252136 0.122929)
(-0.00206381 0.0284248 0.136739)
(-0.00447723 0.028683 0.137865)
(-0.00300475 0.0246646 0.134528)
(-0.00786767 0.0255521 0.137767)
(-0.00708187 0.0232118 0.136883)
(-0.0045387 0.0238438 0.13417)
(-0.00112041 0.0202486 0.131695)
(0.000214207 0.0198488 0.132584)
(-0.00656712 0.0213873 0.135169)
(-0.0084731 0.0210429 0.135476)
(-0.00438922 0.0221925 0.134163)
(-0.00221265 0.0235144 0.134197)
(-0.00246777 0.0168525 0.136498)
(-0.00320471 0.0146658 0.140609)
(-0.00953674 0.00814864 0.146989)
(-0.0116649 0.00978208 0.150666)
(-0.0133557 0.00625035 0.164187)
(-0.0164754 0.00877714 0.178259)
(-0.0227976 0.0104801 0.196813)
(-0.0296693 0.0190454 0.215085)
(-0.0380296 0.0294735 0.263301)
(-0.0349079 0.0162538 0.287915)
(-0.0617607 0.0256451 0.314007)
(-0.0609183 0.0343367 0.375557)
(-0.0795654 0.0294983 0.465871)
(-0.0806044 0.0290594 0.539422)
(-0.0780203 -0.0196516 0.650646)
(-0.0475315 -0.134484 0.699189)
(-0.0227141 -0.2873 0.72516)
(0.00247796 -0.412747 0.700173)
(-0.00289609 -0.550955 0.638917)
(0.0100732 -0.685722 0.555091)
(-0.0701059 -0.924546 0.722199)
(-0.00646173 -0.888854 0.72778)
(0.0374999 -0.824697 0.768058)
(-0.00412369 -0.770454 0.779537)
(-0.0892764 -0.648637 0.631853)
(-0.0985039 -0.724366 0.881654)
(-0.167435 -0.798554 1.06049)
(-0.138219 -0.77359 1.09079)
(0 0 0)
(0 0 0)
(0 0 0)
(0.0109304 -0.210387 -0.341857)
(-0.00218436 0.00261474 -0.000352964)
(-0.0150397 0.045802 -0.0356686)
(-0.0320043 0.105628 -0.119818)
(0.0216569 0.0591256 -0.0766028)
(0.0350546 0.0355788 0.0369205)
(0.0205973 0.0295645 0.13137)
(0.00303513 0.0311955 0.139359)
(-0.00179854 0.0330629 0.141067)
(-0.00259407 0.0312158 0.141311)
(-0.00199899 0.0285315 0.143586)
(-0.0037714 0.0306512 0.143178)
(-0.00128191 0.0284886 0.139308)
(-0.00406189 0.0276175 0.142083)
(-0.00474599 0.0266629 0.142103)
(-0.00594242 0.020123 0.142815)
(-0.00491021 0.0231903 0.144826)
(-0.00914362 0.021258 0.147098)
(-0.00805302 0.0266023 0.150655)
(-0.00596677 0.0203565 0.149875)
(-0.00853278 0.0143197 0.154501)
(-0.00885494 0.0104146 0.16018)
(-0.0136939 0.00808606 0.165705)
(-0.0159358 0.0119816 0.17508)
(-0.0180502 0.0131634 0.200455)
(-0.0226009 0.00917201 0.222701)
(-0.0346199 0.0117022 0.262702)
(-0.0495729 0.0123099 0.313578)
(-0.0551478 0.014304 0.352109)
(-0.076985 0.00782947 0.393508)
(-0.0875091 0.0108444 0.46209)
(-0.0745661 0.000923878 0.515103)
(-0.0793466 0.0102968 0.604473)
(-0.0574594 -0.0512182 0.680982)
(-0.0445436 -0.136517 0.773607)
(-0.0340218 -0.23768 0.772921)
(-0.0143922 -0.345012 0.776916)
(0.00400494 -0.511597 0.726037)
(-0.0185122 -0.709791 0.669615)
(-0.00359593 -0.830261 0.647288)
(0.0246179 -0.792877 0.653209)
(-0.0609494 -0.805492 0.776247)
(0.0242948 -0.673857 0.735494)
(-0.00794096 -0.657333 0.771452)
(-0.111931 -0.783383 1.02464)
(-0.13897 -0.751325 1.11976)
(-0.0990883 -0.626436 1.13194)
(0 0 0)
(0 0 0)
(0 0 0)
(0 0 0)
(0.00188037 0.00206643 0.000478077)
(-0.0163554 0.0719552 -0.0350157)
(-0.0354645 0.101945 -0.118725)
(0.0191245 0.0895064 -0.066094)
(0.0294912 0.0644601 0.0385705)
(0.0214261 0.0463862 0.131711)
(0.00712564 0.0416197 0.146277)
(-0.00255509 0.036 0.142497)
(-0.00486187 0.0368672 0.148222)
(-0.00278647 0.0333034 0.14768)
(-0.00530186 0.0349798 0.150962)
(-0.00431364 0.0328007 0.152132)
(-0.00417926 0.0348911 0.157328)
(-0.00741637 0.0294744 0.156202)
(-0.00899017 0.0259276 0.15494)
(-0.00425878 0.0248038 0.156393)
(-0.00544697 0.0242729 0.163776)
(-0.00433696 0.0246409 0.168389)
(-0.00217484 0.0201724 0.169048)
(-0.00763651 0.0202027 0.16892)
(-0.00773928 0.0167818 0.171403)
(-0.0113719 0.0131072 0.185872)
(-0.0159574 0.00977806 0.19564)
(-0.0192078 0.00219504 0.216767)
(-0.0201984 -0.00325258 0.240123)
(-0.040691 0.00120052 0.280065)
(-0.0406898 -0.00290303 0.318098)
(-0.0547072 -0.00878534 0.384481)