/*--------------------------------*- C++ -*----------------------------------*\
| =========                 |                                                 |
| \\      /  F ield         | OpenFOAM: The Open Source CFD Toolbox           |
|  \\    /   O peration     | Version:  2.3.x                                 |
|   \\  /    A nd           | Web:      www.OpenFOAM.org                      |
|    \\/     M anipulation  |                                                 |
\*---------------------------------------------------------------------------*/
FoamFile
{
    version     2.0;
    format      ascii;
    class       volScalarField;
    location    "0";
    object      p_smooth;
}
// * * * * * * * * * * * * * * * * * * * * * * * * * * * * * * * * * * * * * //

dimensions      [0 2 -2 0 0 0 0];

internalField   nonuniform List<scalar> 
343
(
2.0378e-08
2.81023e-07
3.00792e-06
1.80443e-05
3.00277e-06
2.59494e-07
1.65667e-08
2.81023e-07
4.29794e-06
5.128e-05
0.000346563
5.12236e-05
4.07342e-06
2.41937e-07
3.00792e-06
5.128e-05
0.000687359
0.00529353
0.000686915
4.97956e-05
2.73546e-06
1.80443e-05
0.000346563
0.00529353
0.047373
0.00529124
0.000343356
1.72262e-05
3.00277e-06
5.12236e-05
0.000686915
0.00529124
0.000681457
4.90234e-05
2.73463e-06
2.59494e-07
4.07342e-06
4.97956e-05
0.000343356
4.90234e-05
3.90813e-06
2.41754e-07
1.65667e-08
2.41937e-07
2.73546e-06
1.72262e-05
2.73463e-06
2.41754e-07
1.65697e-08
2.81023e-07
4.29794e-06
5.128e-05
0.000346563
5.12236e-05
4.07342e-06
2.41937e-07
4.29794e-06
7.36521e-05
0.000992094
0.00767743
0.000991548
7.15655e-05
3.91354e-06
5.128e-05
0.000992094
0.015256
0.137412
0.0152529
0.000983969
4.90597e-05
0.000346563
0.00767743
0.137412
1.48049
0.137405
0.00770342
0.000343432
5.12236e-05
0.000991548
0.0152529
0.137405
0.0153122
0.000983969
4.98152e-05
4.07342e-06
7.15655e-05
0.000983969
0.00770342
0.000983969
7.15659e-05
4.07555e-06
2.41937e-07
3.91354e-06
4.90597e-05
0.000343432
4.98152e-05
4.07555e-06
2.59811e-07
3.00792e-06
5.128e-05
0.000687359
0.00529353
0.000686915
4.97956e-05
2.73546e-06
5.128e-05
0.000992094
0.015256
0.137412
0.0152529
0.000983969
4.90597e-05
0.000687359
0.015256
0.273494
2.95069
0.273489
0.0153122
0.000681603
0.00529353
0.137412
2.95069
39.6976
2.95069
0.137405
0.00529128
0.000686915
0.0152529
0.273489
2.95069
0.273489
0.0152529
0.000686921
4.97956e-05
0.000983969
0.0153122
0.137405
0.0152529
0.000991551
5.12243e-05
2.73546e-06
4.90597e-05
0.000681603
0.00529128
0.000686921
5.12243e-05
3.00286e-06
1.80443e-05
0.000346563
0.00529353
0.047373
0.00529124
0.000343356
1.72262e-05
0.000346563
0.00767743
0.137412
1.48049
0.137405
0.00770342
0.000343432
0.00529353
0.137412
2.95069
39.6976
2.95069
0.137405
0.00529128
0.047373
1.48049
39.6976
711.116
39.6976
1.48049
0.047373
0.00529124
0.137405
2.95069
39.6976
2.95069
0.137412
0.00529353
0.000343356
0.00770342
0.137405
1.48049
0.137412
0.00767743
0.000346563
1.72262e-05
0.000343432
0.00529128
0.047373
0.00529353
0.000346563
1.80443e-05
3.00277e-06
5.12236e-05
0.000686915
0.00529124
0.000681457
4.90234e-05
2.73463e-06
5.12236e-05
0.000991548
0.0152529
0.137405
0.0153122
0.000983969
4.98152e-05
0.000686915
0.0152529
0.273489
2.95069
0.273489
0.0152529
0.000686921
0.00529124
0.137405
2.95069
39.6976
2.95069
0.137412
0.00529353
0.000681457
0.0153122
0.273489
2.95069
0.273494
0.015256
0.000687359
4.90234e-05
0.000983969
0.0152529
0.137412
0.015256
0.000992094
5.12801e-05
2.73463e-06
4.98152e-05
0.000686921
0.00529353
0.000687359
5.12801e-05
3.00792e-06
2.59494e-07
4.07342e-06
4.97956e-05
0.000343356
4.90234e-05
3.90813e-06
2.41754e-07
4.07342e-06
7.15655e-05
0.000983969
0.00770342
0.000983969
7.15659e-05
4.07555e-06
4.97956e-05
0.000983969
0.0153122
0.137405
0.0152529
0.000991551
5.12243e-05
0.000343356
0.00770342
0.137405
1.48049
0.137412
0.00767743
0.000346563
4.90234e-05
0.000983969
0.0152529
0.137412
0.015256
0.000992094
5.12801e-05
3.90813e-06
7.15659e-05
0.000991551
0.00767743
0.000992094
7.36521e-05
4.29795e-06
2.41754e-07
4.07555e-06
5.12243e-05
0.000346563
5.12801e-05
4.29795e-06
2.81023e-07
1.65667e-08
2.41937e-07
2.73546e-06
1.72262e-05
2.73463e-06
2.41754e-07
1.65697e-08
2.41937e-07
3.91354e-06
4.90597e-05
0.000343432
4.98152e-05
4.07555e-06
2.59811e-07
2.73546e-06
4.90597e-05
0.000681603
0.00529128
0.000686921
5.12243e-05
3.00286e-06
1.72262e-05
0.000343432
0.00529128
0.047373
0.00529353
0.000346563
1.80443e-05
2.73463e-06
4.98152e-05
0.000686921
0.00529353
0.000687359
5.12801e-05
3.00792e-06
2.41754e-07
4.07555e-06
5.12243e-05
0.000346563
5.12801e-05
4.29795e-06
2.81023e-07
1.65697e-08
2.59811e-07
3.00286e-06
1.80443e-05
3.00792e-06
2.81023e-07
2.0378e-08
)
;

boundaryField
{
    back
    {
        type            zeroGradient;
    }
    front
    {
        type            zeroGradient;
    }
    top
    {
        type            zeroGradient;
    }
    bottom
    {
        type            zeroGradient;
    }
    inlet
    {
        type            zeroGradient;
    }
    outlet
    {
        type            fixedValue;
        value           uniform 0;
    }
}


// ************************************************************************* //
